0.00000  0  0  4  0  cwnd_ 1.000 
0.00000  0  0  4  0  ssthresh_ 20
0.00000  0  0  4  0  ack_ -1
0.00000  0  0  4  0  maxseq_ -1
0.00000  0  0  4  0  rtt_ 0.000 
0.00000  1  0  5  0  cwnd_ 1.000 
0.00000  1  0  5  0  ssthresh_ 20
0.00000  1  0  5  0  ack_ -1
0.00000  1  0  5  0  maxseq_ -1
0.00000  1  0  5  0  rtt_ 0.000 
0.00000  0  0  4  0  ssthresh_ 1000
0.00000  1  0  5  0  ssthresh_ 1000
+ 0 1 2 tcp 40 ------- 2 1.0 5.0 0 0
- 0 1 2 tcp 40 ------- 2 1.0 5.0 0 0
0.00000  1  0  5  0  maxseq_ 0
+ 0 0 2 tcp 40 ------- 1 0.0 4.0 0 1
- 0 0 2 tcp 40 ------- 1 0.0 4.0 0 1
0.00000  0  0  4  0  maxseq_ 0
r 0.5 0 2 tcp 40 ------- 1 0.0 4.0 0 1
+ 0.5 2 3 tcp 40 ------- 1 0.0 4.0 0 1
- 0.5 2 3 tcp 40 ------- 1 0.0 4.0 0 1
r 0.55 2 3 tcp 40 ------- 1 0.0 4.0 0 1
+ 0.55 3 4 tcp 40 ------- 1 0.0 4.0 0 1
- 0.55 3 4 tcp 40 ------- 1 0.0 4.0 0 1
r 0.8 1 2 tcp 40 ------- 2 1.0 5.0 0 0
+ 0.8 2 3 tcp 40 ------- 2 1.0 5.0 0 0
- 0.8 2 3 tcp 40 ------- 2 1.0 5.0 0 0
r 0.85 2 3 tcp 40 ------- 2 1.0 5.0 0 0
+ 0.85 3 5 tcp 40 ------- 2 1.0 5.0 0 0
- 0.85 3 5 tcp 40 ------- 2 1.0 5.0 0 0
r 1.05 3 4 tcp 40 ------- 1 0.0 4.0 0 1
+ 1.05 4 3 ack 40 ------- 1 4.0 0.0 0 2
- 1.05 4 3 ack 40 ------- 1 4.0 0.0 0 2
r 1.55 4 3 ack 40 ------- 1 4.0 0.0 0 2
+ 1.55 3 2 ack 40 ------- 1 4.0 0.0 0 2
- 1.55 3 2 ack 40 ------- 1 4.0 0.0 0 2
r 1.6 3 2 ack 40 ------- 1 4.0 0.0 0 2
+ 1.6 2 0 ack 40 ------- 1 4.0 0.0 0 2
- 1.6 2 0 ack 40 ------- 1 4.0 0.0 0 2
r 1.65 3 5 tcp 40 ------- 2 1.0 5.0 0 0
+ 1.65 5 3 ack 40 ------- 2 5.0 1.0 0 3
- 1.65 5 3 ack 40 ------- 2 5.0 1.0 0 3
r 2.1 2 0 ack 40 ------- 1 4.0 0.0 0 2
2.10000  0  0  4  0  ack_ 0
2.10000  0  0  4  0  rtt_ 2.100 
2.10000  0  0  4  0  cwnd_ 2.000 
+ 2.1 0 2 tcp 1040 ------- 1 0.0 4.0 1 4
- 2.1 0 2 tcp 1040 ------- 1 0.0 4.0 1 4
2.10000  0  0  4  0  maxseq_ 1
+ 2.1 0 2 tcp 1040 ------- 1 0.0 4.0 2 5
2.10000  0  0  4  0  maxseq_ 2
- 2.100002 0 2 tcp 1040 ------- 1 0.0 4.0 2 5
r 2.45 5 3 ack 40 ------- 2 5.0 1.0 0 3
+ 2.45 3 2 ack 40 ------- 2 5.0 1.0 0 3
- 2.45 3 2 ack 40 ------- 2 5.0 1.0 0 3
r 2.5 3 2 ack 40 ------- 2 5.0 1.0 0 3
+ 2.5 2 1 ack 40 ------- 2 5.0 1.0 0 3
- 2.5 2 1 ack 40 ------- 2 5.0 1.0 0 3
r 2.600002 0 2 tcp 1040 ------- 1 0.0 4.0 1 4
+ 2.600002 2 3 tcp 1040 ------- 1 0.0 4.0 1 4
- 2.600002 2 3 tcp 1040 ------- 1 0.0 4.0 1 4
r 2.600005 0 2 tcp 1040 ------- 1 0.0 4.0 2 5
+ 2.600005 2 3 tcp 1040 ------- 1 0.0 4.0 2 5
- 2.600005 2 3 tcp 1040 ------- 1 0.0 4.0 2 5
r 2.650004 2 3 tcp 1040 ------- 1 0.0 4.0 1 4
+ 2.650004 3 4 tcp 1040 ------- 1 0.0 4.0 1 4
- 2.650004 3 4 tcp 1040 ------- 1 0.0 4.0 1 4
r 2.650006 2 3 tcp 1040 ------- 1 0.0 4.0 2 5
+ 2.650006 3 4 tcp 1040 ------- 1 0.0 4.0 2 5
- 2.650006 3 4 tcp 1040 ------- 1 0.0 4.0 2 5
3.00000  1  0  5  0  ssthresh_ 0
3.00000  1  0  5  0  ssthresh_ 2
+ 3 1 2 tcp 40 ---A--- 2 1.0 5.0 0 6
- 3 1 2 tcp 40 ---A--- 2 1.0 5.0 0 6
r 3.150006 3 4 tcp 1040 ------- 1 0.0 4.0 1 4
+ 3.150006 4 3 ack 40 ------- 1 4.0 0.0 1 7
- 3.150006 4 3 ack 40 ------- 1 4.0 0.0 1 7
r 3.150008 3 4 tcp 1040 ------- 1 0.0 4.0 2 5
+ 3.150008 4 3 ack 40 ------- 1 4.0 0.0 2 8
- 3.150008 4 3 ack 40 ------- 1 4.0 0.0 2 8
r 3.3 2 1 ack 40 ------- 2 5.0 1.0 0 3
3.30000  1  0  5  0  ack_ 0
3.30000  1  0  5  0  cwnd_ 2.000 
3.30000  1  0  5  0  cwnd_ 1.000 
+ 3.3 1 2 tcp 1040 ------- 2 1.0 5.0 1 9
- 3.3 1 2 tcp 1040 ------- 2 1.0 5.0 1 9
3.30000  1  0  5  0  maxseq_ 1
r 3.650006 4 3 ack 40 ------- 1 4.0 0.0 1 7
+ 3.650006 3 2 ack 40 ------- 1 4.0 0.0 1 7
- 3.650006 3 2 ack 40 ------- 1 4.0 0.0 1 7
r 3.650008 4 3 ack 40 ------- 1 4.0 0.0 2 8
+ 3.650008 3 2 ack 40 ------- 1 4.0 0.0 2 8
- 3.650008 3 2 ack 40 ------- 1 4.0 0.0 2 8
r 3.700006 3 2 ack 40 ------- 1 4.0 0.0 1 7
+ 3.700006 2 0 ack 40 ------- 1 4.0 0.0 1 7
- 3.700006 2 0 ack 40 ------- 1 4.0 0.0 1 7
r 3.700008 3 2 ack 40 ------- 1 4.0 0.0 2 8
+ 3.700008 2 0 ack 40 ------- 1 4.0 0.0 2 8
- 3.700008 2 0 ack 40 ------- 1 4.0 0.0 2 8
r 3.8 1 2 tcp 40 ---A--- 2 1.0 5.0 0 6
+ 3.8 2 3 tcp 40 ---A--- 2 1.0 5.0 0 6
- 3.8 2 3 tcp 40 ---A--- 2 1.0 5.0 0 6
r 3.85 2 3 tcp 40 ---A--- 2 1.0 5.0 0 6
+ 3.85 3 5 tcp 40 ---A--- 2 1.0 5.0 0 6
- 3.85 3 5 tcp 40 ---A--- 2 1.0 5.0 0 6
r 4.100002 1 2 tcp 1040 ------- 2 1.0 5.0 1 9
+ 4.100002 2 3 tcp 1040 ------- 2 1.0 5.0 1 9
- 4.100002 2 3 tcp 1040 ------- 2 1.0 5.0 1 9
r 4.150004 2 3 tcp 1040 ------- 2 1.0 5.0 1 9
+ 4.150004 3 5 tcp 1040 ------- 2 1.0 5.0 1 9
- 4.150004 3 5 tcp 1040 ------- 2 1.0 5.0 1 9
r 4.200006 2 0 ack 40 ------- 1 4.0 0.0 1 7
4.20001  0  0  4  0  ack_ 1
4.20001  0  0  4  0  cwnd_ 3.000 
+ 4.200006 0 2 tcp 1040 ------- 1 0.0 4.0 3 10
- 4.200006 0 2 tcp 1040 ------- 1 0.0 4.0 3 10
4.20001  0  0  4  0  maxseq_ 3
+ 4.200006 0 2 tcp 1040 ------- 1 0.0 4.0 4 11
4.20001  0  0  4  0  maxseq_ 4
r 4.200008 2 0 ack 40 ------- 1 4.0 0.0 2 8
4.20001  0  0  4  0  ack_ 2
4.20001  0  0  4  0  cwnd_ 4.000 
+ 4.200008 0 2 tcp 1040 ------- 1 0.0 4.0 5 12
4.20001  0  0  4  0  maxseq_ 5
+ 4.200008 0 2 tcp 1040 ------- 1 0.0 4.0 6 13
4.20001  0  0  4  0  maxseq_ 6
- 4.200008 0 2 tcp 1040 ------- 1 0.0 4.0 4 11
- 4.20001 0 2 tcp 1040 ------- 1 0.0 4.0 5 12
- 4.200012 0 2 tcp 1040 ------- 1 0.0 4.0 6 13
r 4.65 3 5 tcp 40 ---A--- 2 1.0 5.0 0 6
+ 4.65 5 3 ack 40 ------- 2 5.0 1.0 0 14
- 4.65 5 3 ack 40 ------- 2 5.0 1.0 0 14
r 4.700008 0 2 tcp 1040 ------- 1 0.0 4.0 3 10
+ 4.700008 2 3 tcp 1040 ------- 1 0.0 4.0 3 10
- 4.700008 2 3 tcp 1040 ------- 1 0.0 4.0 3 10
r 4.70001 0 2 tcp 1040 ------- 1 0.0 4.0 4 11
+ 4.70001 2 3 tcp 1040 ------- 1 0.0 4.0 4 11
- 4.70001 2 3 tcp 1040 ------- 1 0.0 4.0 4 11
r 4.700012 0 2 tcp 1040 ------- 1 0.0 4.0 5 12
+ 4.700012 2 3 tcp 1040 ------- 1 0.0 4.0 5 12
- 4.700012 2 3 tcp 1040 ------- 1 0.0 4.0 5 12
r 4.700014 0 2 tcp 1040 ------- 1 0.0 4.0 6 13
+ 4.700014 2 3 tcp 1040 ------- 1 0.0 4.0 6 13
- 4.700014 2 3 tcp 1040 ------- 1 0.0 4.0 6 13
r 4.750009 2 3 tcp 1040 ------- 1 0.0 4.0 3 10
+ 4.750009 3 4 tcp 1040 ------- 1 0.0 4.0 3 10
- 4.750009 3 4 tcp 1040 ------- 1 0.0 4.0 3 10
r 4.750011 2 3 tcp 1040 ------- 1 0.0 4.0 4 11
+ 4.750011 3 4 tcp 1040 ------- 1 0.0 4.0 4 11
- 4.750011 3 4 tcp 1040 ------- 1 0.0 4.0 4 11
r 4.750013 2 3 tcp 1040 ------- 1 0.0 4.0 5 12
+ 4.750013 3 4 tcp 1040 ------- 1 0.0 4.0 5 12
- 4.750013 3 4 tcp 1040 ------- 1 0.0 4.0 5 12
r 4.750015 2 3 tcp 1040 ------- 1 0.0 4.0 6 13
+ 4.750015 3 4 tcp 1040 ------- 1 0.0 4.0 6 13
- 4.750015 3 4 tcp 1040 ------- 1 0.0 4.0 6 13
r 4.950006 3 5 tcp 1040 ------- 2 1.0 5.0 1 9
+ 4.950006 5 3 ack 40 ------- 2 5.0 1.0 1 15
- 4.950006 5 3 ack 40 ------- 2 5.0 1.0 1 15
r 5.250011 3 4 tcp 1040 ------- 1 0.0 4.0 3 10
+ 5.250011 4 3 ack 40 ------- 1 4.0 0.0 3 16
- 5.250011 4 3 ack 40 ------- 1 4.0 0.0 3 16
r 5.250013 3 4 tcp 1040 ------- 1 0.0 4.0 4 11
+ 5.250013 4 3 ack 40 ------- 1 4.0 0.0 4 17
- 5.250013 4 3 ack 40 ------- 1 4.0 0.0 4 17
r 5.250015 3 4 tcp 1040 ------- 1 0.0 4.0 5 12
+ 5.250015 4 3 ack 40 ------- 1 4.0 0.0 5 18
- 5.250015 4 3 ack 40 ------- 1 4.0 0.0 5 18
r 5.250017 3 4 tcp 1040 ------- 1 0.0 4.0 6 13
+ 5.250017 4 3 ack 40 ------- 1 4.0 0.0 6 19
- 5.250017 4 3 ack 40 ------- 1 4.0 0.0 6 19
r 5.45 5 3 ack 40 ------- 2 5.0 1.0 0 14
+ 5.45 3 2 ack 40 ------- 2 5.0 1.0 0 14
- 5.45 3 2 ack 40 ------- 2 5.0 1.0 0 14
r 5.5 3 2 ack 40 ------- 2 5.0 1.0 0 14
+ 5.5 2 1 ack 40 ------- 2 5.0 1.0 0 14
- 5.5 2 1 ack 40 ------- 2 5.0 1.0 0 14
r 5.750006 5 3 ack 40 ------- 2 5.0 1.0 1 15
+ 5.750006 3 2 ack 40 ------- 2 5.0 1.0 1 15
- 5.750006 3 2 ack 40 ------- 2 5.0 1.0 1 15
r 5.750011 4 3 ack 40 ------- 1 4.0 0.0 3 16
+ 5.750011 3 2 ack 40 ------- 1 4.0 0.0 3 16
- 5.750011 3 2 ack 40 ------- 1 4.0 0.0 3 16
r 5.750013 4 3 ack 40 ------- 1 4.0 0.0 4 17
+ 5.750013 3 2 ack 40 ------- 1 4.0 0.0 4 17
- 5.750013 3 2 ack 40 ------- 1 4.0 0.0 4 17
r 5.750015 4 3 ack 40 ------- 1 4.0 0.0 5 18
+ 5.750015 3 2 ack 40 ------- 1 4.0 0.0 5 18
- 5.750015 3 2 ack 40 ------- 1 4.0 0.0 5 18
r 5.750017 4 3 ack 40 ------- 1 4.0 0.0 6 19
+ 5.750017 3 2 ack 40 ------- 1 4.0 0.0 6 19
- 5.750017 3 2 ack 40 ------- 1 4.0 0.0 6 19
r 5.800006 3 2 ack 40 ------- 2 5.0 1.0 1 15
+ 5.800006 2 1 ack 40 ------- 2 5.0 1.0 1 15
- 5.800006 2 1 ack 40 ------- 2 5.0 1.0 1 15
r 5.800011 3 2 ack 40 ------- 1 4.0 0.0 3 16
+ 5.800011 2 0 ack 40 ------- 1 4.0 0.0 3 16
- 5.800011 2 0 ack 40 ------- 1 4.0 0.0 3 16
r 5.800013 3 2 ack 40 ------- 1 4.0 0.0 4 17
+ 5.800013 2 0 ack 40 ------- 1 4.0 0.0 4 17
- 5.800013 2 0 ack 40 ------- 1 4.0 0.0 4 17
r 5.800015 3 2 ack 40 ------- 1 4.0 0.0 5 18
+ 5.800015 2 0 ack 40 ------- 1 4.0 0.0 5 18
- 5.800015 2 0 ack 40 ------- 1 4.0 0.0 5 18
r 5.800017 3 2 ack 40 ------- 1 4.0 0.0 6 19
+ 5.800017 2 0 ack 40 ------- 1 4.0 0.0 6 19
- 5.800017 2 0 ack 40 ------- 1 4.0 0.0 6 19
r 6.3 2 1 ack 40 ------- 2 5.0 1.0 0 14
+ 6.3 1 2 tcp 1040 ------- 2 1.0 5.0 2 20
- 6.3 1 2 tcp 1040 ------- 2 1.0 5.0 2 20
6.30000  1  0  5  0  maxseq_ 2
r 6.300011 2 0 ack 40 ------- 1 4.0 0.0 3 16
6.30001  0  0  4  0  ack_ 3
6.30001  0  0  4  0  cwnd_ 5.000 
+ 6.300011 0 2 tcp 1040 ------- 1 0.0 4.0 7 21
- 6.300011 0 2 tcp 1040 ------- 1 0.0 4.0 7 21
6.30001  0  0  4  0  maxseq_ 7
+ 6.300011 0 2 tcp 1040 ------- 1 0.0 4.0 8 22
6.30001  0  0  4  0  maxseq_ 8
r 6.300013 2 0 ack 40 ------- 1 4.0 0.0 4 17
6.30001  0  0  4  0  ack_ 4
6.30001  0  0  4  0  cwnd_ 6.000 
+ 6.300013 0 2 tcp 1040 ------- 1 0.0 4.0 9 23
6.30001  0  0  4  0  maxseq_ 9
+ 6.300013 0 2 tcp 1040 ------- 1 0.0 4.0 10 24
6.30001  0  0  4  0  maxseq_ 10
- 6.300013 0 2 tcp 1040 ------- 1 0.0 4.0 8 22
r 6.300015 2 0 ack 40 ------- 1 4.0 0.0 5 18
6.30002  0  0  4  0  ack_ 5
6.30002  0  0  4  0  cwnd_ 7.000 
+ 6.300015 0 2 tcp 1040 ------- 1 0.0 4.0 11 25
6.30002  0  0  4  0  maxseq_ 11
+ 6.300015 0 2 tcp 1040 ------- 1 0.0 4.0 12 26
6.30002  0  0  4  0  maxseq_ 12
- 6.300015 0 2 tcp 1040 ------- 1 0.0 4.0 9 23
r 6.300017 2 0 ack 40 ------- 1 4.0 0.0 6 19
6.30002  0  0  4  0  ack_ 6
6.30002  0  0  4  0  cwnd_ 8.000 
+ 6.300017 0 2 tcp 1040 ------- 1 0.0 4.0 13 27
6.30002  0  0  4  0  maxseq_ 13
+ 6.300017 0 2 tcp 1040 ------- 1 0.0 4.0 14 28
6.30002  0  0  4  0  maxseq_ 14
- 6.300017 0 2 tcp 1040 ------- 1 0.0 4.0 10 24
- 6.30002 0 2 tcp 1040 ------- 1 0.0 4.0 11 25
- 6.300022 0 2 tcp 1040 ------- 1 0.0 4.0 12 26
- 6.300024 0 2 tcp 1040 ------- 1 0.0 4.0 13 27
- 6.300026 0 2 tcp 1040 ------- 1 0.0 4.0 14 28
r 6.600006 2 1 ack 40 ------- 2 5.0 1.0 1 15
6.60001  1  0  5  0  ack_ 1
6.60001  1  0  5  0  rtt_ 3.300 
6.60001  1  0  5  0  cwnd_ 2.000 
+ 6.600006 1 2 tcp 1040 ------- 2 1.0 5.0 3 29
- 6.600006 1 2 tcp 1040 ------- 2 1.0 5.0 3 29
6.60001  1  0  5  0  maxseq_ 3
r 6.800013 0 2 tcp 1040 ------- 1 0.0 4.0 7 21
+ 6.800013 2 3 tcp 1040 ------- 1 0.0 4.0 7 21
- 6.800013 2 3 tcp 1040 ------- 1 0.0 4.0 7 21
r 6.800015 0 2 tcp 1040 ------- 1 0.0 4.0 8 22
+ 6.800015 2 3 tcp 1040 ------- 1 0.0 4.0 8 22
- 6.800015 2 3 tcp 1040 ------- 1 0.0 4.0 8 22
r 6.800017 0 2 tcp 1040 ------- 1 0.0 4.0 9 23
+ 6.800017 2 3 tcp 1040 ------- 1 0.0 4.0 9 23
- 6.800017 2 3 tcp 1040 ------- 1 0.0 4.0 9 23
r 6.80002 0 2 tcp 1040 ------- 1 0.0 4.0 10 24
+ 6.80002 2 3 tcp 1040 ------- 1 0.0 4.0 10 24
- 6.80002 2 3 tcp 1040 ------- 1 0.0 4.0 10 24
r 6.800022 0 2 tcp 1040 ------- 1 0.0 4.0 11 25
+ 6.800022 2 3 tcp 1040 ------- 1 0.0 4.0 11 25
- 6.800022 2 3 tcp 1040 ------- 1 0.0 4.0 11 25
r 6.800024 0 2 tcp 1040 ------- 1 0.0 4.0 12 26
+ 6.800024 2 3 tcp 1040 ------- 1 0.0 4.0 12 26
- 6.800024 2 3 tcp 1040 ------- 1 0.0 4.0 12 26
r 6.800026 0 2 tcp 1040 ------- 1 0.0 4.0 13 27
+ 6.800026 2 3 tcp 1040 ------- 1 0.0 4.0 13 27
- 6.800026 2 3 tcp 1040 ------- 1 0.0 4.0 13 27
r 6.800028 0 2 tcp 1040 ------- 1 0.0 4.0 14 28
+ 6.800028 2 3 tcp 1040 ------- 1 0.0 4.0 14 28
- 6.800028 2 3 tcp 1040 ------- 1 0.0 4.0 14 28
r 6.850014 2 3 tcp 1040 ------- 1 0.0 4.0 7 21
+ 6.850014 3 4 tcp 1040 ------- 1 0.0 4.0 7 21
- 6.850014 3 4 tcp 1040 ------- 1 0.0 4.0 7 21
r 6.850016 2 3 tcp 1040 ------- 1 0.0 4.0 8 22
+ 6.850016 3 4 tcp 1040 ------- 1 0.0 4.0 8 22
- 6.850016 3 4 tcp 1040 ------- 1 0.0 4.0 8 22
r 6.850018 2 3 tcp 1040 ------- 1 0.0 4.0 9 23
+ 6.850018 3 4 tcp 1040 ------- 1 0.0 4.0 9 23
- 6.850018 3 4 tcp 1040 ------- 1 0.0 4.0 9 23
r 6.850021 2 3 tcp 1040 ------- 1 0.0 4.0 10 24
+ 6.850021 3 4 tcp 1040 ------- 1 0.0 4.0 10 24
- 6.850021 3 4 tcp 1040 ------- 1 0.0 4.0 10 24
r 6.850023 2 3 tcp 1040 ------- 1 0.0 4.0 11 25
+ 6.850023 3 4 tcp 1040 ------- 1 0.0 4.0 11 25
- 6.850023 3 4 tcp 1040 ------- 1 0.0 4.0 11 25
r 6.850025 2 3 tcp 1040 ------- 1 0.0 4.0 12 26
+ 6.850025 3 4 tcp 1040 ------- 1 0.0 4.0 12 26
- 6.850025 3 4 tcp 1040 ------- 1 0.0 4.0 12 26
r 6.850027 2 3 tcp 1040 ------- 1 0.0 4.0 13 27
+ 6.850027 3 4 tcp 1040 ------- 1 0.0 4.0 13 27
- 6.850027 3 4 tcp 1040 ------- 1 0.0 4.0 13 27
r 6.850029 2 3 tcp 1040 ------- 1 0.0 4.0 14 28
+ 6.850029 3 4 tcp 1040 ------- 1 0.0 4.0 14 28
- 6.850029 3 4 tcp 1040 ------- 1 0.0 4.0 14 28
r 7.100002 1 2 tcp 1040 ------- 2 1.0 5.0 2 20
+ 7.100002 2 3 tcp 1040 ------- 2 1.0 5.0 2 20
- 7.100002 2 3 tcp 1040 ------- 2 1.0 5.0 2 20
r 7.150004 2 3 tcp 1040 ------- 2 1.0 5.0 2 20
+ 7.150004 3 5 tcp 1040 ------- 2 1.0 5.0 2 20
- 7.150004 3 5 tcp 1040 ------- 2 1.0 5.0 2 20
r 7.350016 3 4 tcp 1040 ------- 1 0.0 4.0 7 21
+ 7.350016 4 3 ack 40 ------- 1 4.0 0.0 7 30
- 7.350016 4 3 ack 40 ------- 1 4.0 0.0 7 30
r 7.350018 3 4 tcp 1040 ------- 1 0.0 4.0 8 22
+ 7.350018 4 3 ack 40 ------- 1 4.0 0.0 8 31
- 7.350018 4 3 ack 40 ------- 1 4.0 0.0 8 31
r 7.350021 3 4 tcp 1040 ------- 1 0.0 4.0 9 23
+ 7.350021 4 3 ack 40 ------- 1 4.0 0.0 9 32
- 7.350021 4 3 ack 40 ------- 1 4.0 0.0 9 32
r 7.350023 3 4 tcp 1040 ------- 1 0.0 4.0 10 24
+ 7.350023 4 3 ack 40 ------- 1 4.0 0.0 10 33
- 7.350023 4 3 ack 40 ------- 1 4.0 0.0 10 33
r 7.350025 3 4 tcp 1040 ------- 1 0.0 4.0 11 25
+ 7.350025 4 3 ack 40 ------- 1 4.0 0.0 11 34
- 7.350025 4 3 ack 40 ------- 1 4.0 0.0 11 34
r 7.350027 3 4 tcp 1040 ------- 1 0.0 4.0 12 26
+ 7.350027 4 3 ack 40 ------- 1 4.0 0.0 12 35
- 7.350027 4 3 ack 40 ------- 1 4.0 0.0 12 35
r 7.350029 3 4 tcp 1040 ------- 1 0.0 4.0 13 27
+ 7.350029 4 3 ack 40 ------- 1 4.0 0.0 13 36
- 7.350029 4 3 ack 40 ------- 1 4.0 0.0 13 36
r 7.350031 3 4 tcp 1040 ------- 1 0.0 4.0 14 28
+ 7.350031 4 3 ack 40 ------- 1 4.0 0.0 14 37
- 7.350031 4 3 ack 40 ------- 1 4.0 0.0 14 37
r 7.400008 1 2 tcp 1040 ------- 2 1.0 5.0 3 29
+ 7.400008 2 3 tcp 1040 ------- 2 1.0 5.0 3 29
- 7.400008 2 3 tcp 1040 ------- 2 1.0 5.0 3 29
r 7.450009 2 3 tcp 1040 ------- 2 1.0 5.0 3 29
+ 7.450009 3 5 tcp 1040 ------- 2 1.0 5.0 3 29
- 7.450009 3 5 tcp 1040 ------- 2 1.0 5.0 3 29
r 7.850016 4 3 ack 40 ------- 1 4.0 0.0 7 30
+ 7.850016 3 2 ack 40 ------- 1 4.0 0.0 7 30
- 7.850016 3 2 ack 40 ------- 1 4.0 0.0 7 30
r 7.850019 4 3 ack 40 ------- 1 4.0 0.0 8 31
+ 7.850019 3 2 ack 40 ------- 1 4.0 0.0 8 31
- 7.850019 3 2 ack 40 ------- 1 4.0 0.0 8 31
r 7.850021 4 3 ack 40 ------- 1 4.0 0.0 9 32
+ 7.850021 3 2 ack 40 ------- 1 4.0 0.0 9 32
- 7.850021 3 2 ack 40 ------- 1 4.0 0.0 9 32
r 7.850023 4 3 ack 40 ------- 1 4.0 0.0 10 33
+ 7.850023 3 2 ack 40 ------- 1 4.0 0.0 10 33
- 7.850023 3 2 ack 40 ------- 1 4.0 0.0 10 33
r 7.850025 4 3 ack 40 ------- 1 4.0 0.0 11 34
+ 7.850025 3 2 ack 40 ------- 1 4.0 0.0 11 34
- 7.850025 3 2 ack 40 ------- 1 4.0 0.0 11 34
r 7.850027 4 3 ack 40 ------- 1 4.0 0.0 12 35
+ 7.850027 3 2 ack 40 ------- 1 4.0 0.0 12 35
- 7.850027 3 2 ack 40 ------- 1 4.0 0.0 12 35
r 7.850029 4 3 ack 40 ------- 1 4.0 0.0 13 36
+ 7.850029 3 2 ack 40 ------- 1 4.0 0.0 13 36
- 7.850029 3 2 ack 40 ------- 1 4.0 0.0 13 36
r 7.850031 4 3 ack 40 ------- 1 4.0 0.0 14 37
+ 7.850031 3 2 ack 40 ------- 1 4.0 0.0 14 37
- 7.850031 3 2 ack 40 ------- 1 4.0 0.0 14 37
r 7.900017 3 2 ack 40 ------- 1 4.0 0.0 7 30
+ 7.900017 2 0 ack 40 ------- 1 4.0 0.0 7 30
- 7.900017 2 0 ack 40 ------- 1 4.0 0.0 7 30
r 7.900019 3 2 ack 40 ------- 1 4.0 0.0 8 31
+ 7.900019 2 0 ack 40 ------- 1 4.0 0.0 8 31
- 7.900019 2 0 ack 40 ------- 1 4.0 0.0 8 31
r 7.900021 3 2 ack 40 ------- 1 4.0 0.0 9 32
+ 7.900021 2 0 ack 40 ------- 1 4.0 0.0 9 32
- 7.900021 2 0 ack 40 ------- 1 4.0 0.0 9 32
r 7.900023 3 2 ack 40 ------- 1 4.0 0.0 10 33
+ 7.900023 2 0 ack 40 ------- 1 4.0 0.0 10 33
- 7.900023 2 0 ack 40 ------- 1 4.0 0.0 10 33
r 7.900025 3 2 ack 40 ------- 1 4.0 0.0 11 34
+ 7.900025 2 0 ack 40 ------- 1 4.0 0.0 11 34
- 7.900025 2 0 ack 40 ------- 1 4.0 0.0 11 34
r 7.900027 3 2 ack 40 ------- 1 4.0 0.0 12 35
+ 7.900027 2 0 ack 40 ------- 1 4.0 0.0 12 35
- 7.900027 2 0 ack 40 ------- 1 4.0 0.0 12 35
r 7.900029 3 2 ack 40 ------- 1 4.0 0.0 13 36
+ 7.900029 2 0 ack 40 ------- 1 4.0 0.0 13 36
- 7.900029 2 0 ack 40 ------- 1 4.0 0.0 13 36
r 7.900031 3 2 ack 40 ------- 1 4.0 0.0 14 37
+ 7.900031 2 0 ack 40 ------- 1 4.0 0.0 14 37
- 7.900031 2 0 ack 40 ------- 1 4.0 0.0 14 37
r 7.950006 3 5 tcp 1040 ------- 2 1.0 5.0 2 20
+ 7.950006 5 3 ack 40 ------- 2 5.0 1.0 2 38
- 7.950006 5 3 ack 40 ------- 2 5.0 1.0 2 38
r 8.250011 3 5 tcp 1040 ------- 2 1.0 5.0 3 29
+ 8.250011 5 3 ack 40 ------- 2 5.0 1.0 3 39
- 8.250011 5 3 ack 40 ------- 2 5.0 1.0 3 39
r 8.400017 2 0 ack 40 ------- 1 4.0 0.0 7 30
8.40002  0  0  4  0  ack_ 7
8.40002  0  0  4  0  cwnd_ 9.000 
+ 8.400017 0 2 tcp 1040 ------- 1 0.0 4.0 15 40
- 8.400017 0 2 tcp 1040 ------- 1 0.0 4.0 15 40
8.40002  0  0  4  0  maxseq_ 15
+ 8.400017 0 2 tcp 1040 ------- 1 0.0 4.0 16 41
8.40002  0  0  4  0  maxseq_ 16
r 8.400019 2 0 ack 40 ------- 1 4.0 0.0 8 31
8.40002  0  0  4  0  ack_ 8
8.40002  0  0  4  0  cwnd_ 10.000
+ 8.400019 0 2 tcp 1040 ------- 1 0.0 4.0 17 42
8.40002  0  0  4  0  maxseq_ 17
+ 8.400019 0 2 tcp 1040 ------- 1 0.0 4.0 18 43
8.40002  0  0  4  0  maxseq_ 18
- 8.400019 0 2 tcp 1040 ------- 1 0.0 4.0 16 41
r 8.400021 2 0 ack 40 ------- 1 4.0 0.0 9 32
8.40002  0  0  4  0  ack_ 9
8.40002  0  0  4  0  cwnd_ 11.000
+ 8.400021 0 2 tcp 1040 ------- 1 0.0 4.0 19 44
8.40002  0  0  4  0  maxseq_ 19
+ 8.400021 0 2 tcp 1040 ------- 1 0.0 4.0 20 45
8.40002  0  0  4  0  maxseq_ 20
- 8.400021 0 2 tcp 1040 ------- 1 0.0 4.0 17 42
r 8.400023 2 0 ack 40 ------- 1 4.0 0.0 10 33
8.40002  0  0  4  0  ack_ 10
8.40002  0  0  4  0  cwnd_ 12.000
+ 8.400023 0 2 tcp 1040 ------- 1 0.0 4.0 21 46
8.40002  0  0  4  0  maxseq_ 21
+ 8.400023 0 2 tcp 1040 ------- 1 0.0 4.0 22 47
8.40002  0  0  4  0  maxseq_ 22
- 8.400023 0 2 tcp 1040 ------- 1 0.0 4.0 18 43
r 8.400025 2 0 ack 40 ------- 1 4.0 0.0 11 34
8.40002  0  0  4  0  ack_ 11
8.40002  0  0  4  0  cwnd_ 13.000
+ 8.400025 0 2 tcp 1040 ------- 1 0.0 4.0 23 48
8.40002  0  0  4  0  maxseq_ 23
+ 8.400025 0 2 tcp 1040 ------- 1 0.0 4.0 24 49
8.40002  0  0  4  0  maxseq_ 24
- 8.400025 0 2 tcp 1040 ------- 1 0.0 4.0 19 44
r 8.400027 2 0 ack 40 ------- 1 4.0 0.0 12 35
8.40003  0  0  4  0  ack_ 12
8.40003  0  0  4  0  cwnd_ 14.000
+ 8.400027 0 2 tcp 1040 ------- 1 0.0 4.0 25 50
8.40003  0  0  4  0  maxseq_ 25
+ 8.400027 0 2 tcp 1040 ------- 1 0.0 4.0 26 51
8.40003  0  0  4  0  maxseq_ 26
- 8.400027 0 2 tcp 1040 ------- 1 0.0 4.0 20 45
r 8.400029 2 0 ack 40 ------- 1 4.0 0.0 13 36
8.40003  0  0  4  0  ack_ 13
8.40003  0  0  4  0  cwnd_ 15.000
+ 8.400029 0 2 tcp 1040 ------- 1 0.0 4.0 27 52
8.40003  0  0  4  0  maxseq_ 27
+ 8.400029 0 2 tcp 1040 ------- 1 0.0 4.0 28 53
8.40003  0  0  4  0  maxseq_ 28
- 8.400029 0 2 tcp 1040 ------- 1 0.0 4.0 21 46
r 8.400031 2 0 ack 40 ------- 1 4.0 0.0 14 37
8.40003  0  0  4  0  ack_ 14
8.40003  0  0  4  0  cwnd_ 16.000
+ 8.400031 0 2 tcp 1040 ------- 1 0.0 4.0 29 54
8.40003  0  0  4  0  maxseq_ 29
+ 8.400031 0 2 tcp 1040 ------- 1 0.0 4.0 30 55
8.40003  0  0  4  0  maxseq_ 30
- 8.400031 0 2 tcp 1040 ------- 1 0.0 4.0 22 47
- 8.400033 0 2 tcp 1040 ------- 1 0.0 4.0 23 48
- 8.400035 0 2 tcp 1040 ------- 1 0.0 4.0 24 49
- 8.400037 0 2 tcp 1040 ------- 1 0.0 4.0 25 50
- 8.400039 0 2 tcp 1040 ------- 1 0.0 4.0 26 51
- 8.400042 0 2 tcp 1040 ------- 1 0.0 4.0 27 52
- 8.400044 0 2 tcp 1040 ------- 1 0.0 4.0 28 53
- 8.400046 0 2 tcp 1040 ------- 1 0.0 4.0 29 54
- 8.400048 0 2 tcp 1040 ------- 1 0.0 4.0 30 55
r 8.750006 5 3 ack 40 ------- 2 5.0 1.0 2 38
+ 8.750006 3 2 ack 40 ------- 2 5.0 1.0 2 38
- 8.750006 3 2 ack 40 ------- 2 5.0 1.0 2 38
r 8.800006 3 2 ack 40 ------- 2 5.0 1.0 2 38
+ 8.800006 2 1 ack 40 ------- 2 5.0 1.0 2 38
- 8.800006 2 1 ack 40 ------- 2 5.0 1.0 2 38
r 8.900019 0 2 tcp 1040 ------- 1 0.0 4.0 15 40
+ 8.900019 2 3 tcp 1040 ------- 1 0.0 4.0 15 40
- 8.900019 2 3 tcp 1040 ------- 1 0.0 4.0 15 40
r 8.900021 0 2 tcp 1040 ------- 1 0.0 4.0 16 41
+ 8.900021 2 3 tcp 1040 ------- 1 0.0 4.0 16 41
- 8.900021 2 3 tcp 1040 ------- 1 0.0 4.0 16 41
r 8.900023 0 2 tcp 1040 ------- 1 0.0 4.0 17 42
+ 8.900023 2 3 tcp 1040 ------- 1 0.0 4.0 17 42
- 8.900023 2 3 tcp 1040 ------- 1 0.0 4.0 17 42
r 8.900025 0 2 tcp 1040 ------- 1 0.0 4.0 18 43
+ 8.900025 2 3 tcp 1040 ------- 1 0.0 4.0 18 43
- 8.900025 2 3 tcp 1040 ------- 1 0.0 4.0 18 43
r 8.900027 0 2 tcp 1040 ------- 1 0.0 4.0 19 44
+ 8.900027 2 3 tcp 1040 ------- 1 0.0 4.0 19 44
- 8.900027 2 3 tcp 1040 ------- 1 0.0 4.0 19 44
r 8.900029 0 2 tcp 1040 ------- 1 0.0 4.0 20 45
+ 8.900029 2 3 tcp 1040 ------- 1 0.0 4.0 20 45
- 8.900029 2 3 tcp 1040 ------- 1 0.0 4.0 20 45
r 8.900031 0 2 tcp 1040 ------- 1 0.0 4.0 21 46
+ 8.900031 2 3 tcp 1040 ------- 1 0.0 4.0 21 46
- 8.900031 2 3 tcp 1040 ------- 1 0.0 4.0 21 46
r 8.900033 0 2 tcp 1040 ------- 1 0.0 4.0 22 47
+ 8.900033 2 3 tcp 1040 ------- 1 0.0 4.0 22 47
- 8.900033 2 3 tcp 1040 ------- 1 0.0 4.0 22 47
r 8.900035 0 2 tcp 1040 ------- 1 0.0 4.0 23 48
+ 8.900035 2 3 tcp 1040 ------- 1 0.0 4.0 23 48
- 8.900035 2 3 tcp 1040 ------- 1 0.0 4.0 23 48
r 8.900037 0 2 tcp 1040 ------- 1 0.0 4.0 24 49
+ 8.900037 2 3 tcp 1040 ------- 1 0.0 4.0 24 49
- 8.900037 2 3 tcp 1040 ------- 1 0.0 4.0 24 49
r 8.900039 0 2 tcp 1040 ------- 1 0.0 4.0 25 50
+ 8.900039 2 3 tcp 1040 ------- 1 0.0 4.0 25 50
- 8.900039 2 3 tcp 1040 ------- 1 0.0 4.0 25 50
r 8.900042 0 2 tcp 1040 ------- 1 0.0 4.0 26 51
+ 8.900042 2 3 tcp 1040 ------- 1 0.0 4.0 26 51
- 8.900042 2 3 tcp 1040 ------- 1 0.0 4.0 26 51
r 8.900044 0 2 tcp 1040 ------- 1 0.0 4.0 27 52
+ 8.900044 2 3 tcp 1040 ------- 1 0.0 4.0 27 52
- 8.900044 2 3 tcp 1040 ------- 1 0.0 4.0 27 52
r 8.900046 0 2 tcp 1040 ------- 1 0.0 4.0 28 53
+ 8.900046 2 3 tcp 1040 ------- 1 0.0 4.0 28 53
- 8.900046 2 3 tcp 1040 ------- 1 0.0 4.0 28 53
r 8.900048 0 2 tcp 1040 ------- 1 0.0 4.0 29 54
+ 8.900048 2 3 tcp 1040 ------- 1 0.0 4.0 29 54
- 8.900048 2 3 tcp 1040 ------- 1 0.0 4.0 29 54
r 8.90005 0 2 tcp 1040 ------- 1 0.0 4.0 30 55
+ 8.90005 2 3 tcp 1040 ------- 1 0.0 4.0 30 55
- 8.90005 2 3 tcp 1040 ------- 1 0.0 4.0 30 55
r 8.95002 2 3 tcp 1040 ------- 1 0.0 4.0 15 40
+ 8.95002 3 4 tcp 1040 ------- 1 0.0 4.0 15 40
- 8.95002 3 4 tcp 1040 ------- 1 0.0 4.0 15 40
r 8.950022 2 3 tcp 1040 ------- 1 0.0 4.0 16 41
+ 8.950022 3 4 tcp 1040 ------- 1 0.0 4.0 16 41
- 8.950022 3 4 tcp 1040 ------- 1 0.0 4.0 16 41
r 8.950024 2 3 tcp 1040 ------- 1 0.0 4.0 17 42
+ 8.950024 3 4 tcp 1040 ------- 1 0.0 4.0 17 42
- 8.950024 3 4 tcp 1040 ------- 1 0.0 4.0 17 42
r 8.950026 2 3 tcp 1040 ------- 1 0.0 4.0 18 43
+ 8.950026 3 4 tcp 1040 ------- 1 0.0 4.0 18 43
- 8.950026 3 4 tcp 1040 ------- 1 0.0 4.0 18 43
r 8.950028 2 3 tcp 1040 ------- 1 0.0 4.0 19 44
+ 8.950028 3 4 tcp 1040 ------- 1 0.0 4.0 19 44
- 8.950028 3 4 tcp 1040 ------- 1 0.0 4.0 19 44
r 8.95003 2 3 tcp 1040 ------- 1 0.0 4.0 20 45
+ 8.95003 3 4 tcp 1040 ------- 1 0.0 4.0 20 45
- 8.95003 3 4 tcp 1040 ------- 1 0.0 4.0 20 45
r 8.950032 2 3 tcp 1040 ------- 1 0.0 4.0 21 46
+ 8.950032 3 4 tcp 1040 ------- 1 0.0 4.0 21 46
- 8.950032 3 4 tcp 1040 ------- 1 0.0 4.0 21 46
r 8.950034 2 3 tcp 1040 ------- 1 0.0 4.0 22 47
+ 8.950034 3 4 tcp 1040 ------- 1 0.0 4.0 22 47
- 8.950034 3 4 tcp 1040 ------- 1 0.0 4.0 22 47
r 8.950036 2 3 tcp 1040 ------- 1 0.0 4.0 23 48
+ 8.950036 3 4 tcp 1040 ------- 1 0.0 4.0 23 48
- 8.950036 3 4 tcp 1040 ------- 1 0.0 4.0 23 48
r 8.950038 2 3 tcp 1040 ------- 1 0.0 4.0 24 49
+ 8.950038 3 4 tcp 1040 ------- 1 0.0 4.0 24 49
- 8.950038 3 4 tcp 1040 ------- 1 0.0 4.0 24 49
r 8.950041 2 3 tcp 1040 ------- 1 0.0 4.0 25 50
+ 8.950041 3 4 tcp 1040 ------- 1 0.0 4.0 25 50
- 8.950041 3 4 tcp 1040 ------- 1 0.0 4.0 25 50
r 8.950043 2 3 tcp 1040 ------- 1 0.0 4.0 26 51
+ 8.950043 3 4 tcp 1040 ------- 1 0.0 4.0 26 51
- 8.950043 3 4 tcp 1040 ------- 1 0.0 4.0 26 51
r 8.950045 2 3 tcp 1040 ------- 1 0.0 4.0 27 52
+ 8.950045 3 4 tcp 1040 ------- 1 0.0 4.0 27 52
- 8.950045 3 4 tcp 1040 ------- 1 0.0 4.0 27 52
r 8.950047 2 3 tcp 1040 ------- 1 0.0 4.0 28 53
+ 8.950047 3 4 tcp 1040 ------- 1 0.0 4.0 28 53
- 8.950047 3 4 tcp 1040 ------- 1 0.0 4.0 28 53
r 8.950049 2 3 tcp 1040 ------- 1 0.0 4.0 29 54
+ 8.950049 3 4 tcp 1040 ------- 1 0.0 4.0 29 54
- 8.950049 3 4 tcp 1040 ------- 1 0.0 4.0 29 54
r 8.950051 2 3 tcp 1040 ------- 1 0.0 4.0 30 55
+ 8.950051 3 4 tcp 1040 ------- 1 0.0 4.0 30 55
- 8.950051 3 4 tcp 1040 ------- 1 0.0 4.0 30 55
r 9.050011 5 3 ack 40 ------- 2 5.0 1.0 3 39
+ 9.050011 3 2 ack 40 ------- 2 5.0 1.0 3 39
- 9.050011 3 2 ack 40 ------- 2 5.0 1.0 3 39
r 9.100011 3 2 ack 40 ------- 2 5.0 1.0 3 39
+ 9.100011 2 1 ack 40 ------- 2 5.0 1.0 3 39
- 9.100011 2 1 ack 40 ------- 2 5.0 1.0 3 39
r 9.450022 3 4 tcp 1040 ------- 1 0.0 4.0 15 40
+ 9.450022 4 3 ack 40 ------- 1 4.0 0.0 15 56
- 9.450022 4 3 ack 40 ------- 1 4.0 0.0 15 56
r 9.450024 3 4 tcp 1040 ------- 1 0.0 4.0 16 41
+ 9.450024 4 3 ack 40 ------- 1 4.0 0.0 16 57
- 9.450024 4 3 ack 40 ------- 1 4.0 0.0 16 57
r 9.450026 3 4 tcp 1040 ------- 1 0.0 4.0 17 42
+ 9.450026 4 3 ack 40 ------- 1 4.0 0.0 17 58
- 9.450026 4 3 ack 40 ------- 1 4.0 0.0 17 58
r 9.450028 3 4 tcp 1040 ------- 1 0.0 4.0 18 43
+ 9.450028 4 3 ack 40 ------- 1 4.0 0.0 18 59
- 9.450028 4 3 ack 40 ------- 1 4.0 0.0 18 59
r 9.45003 3 4 tcp 1040 ------- 1 0.0 4.0 19 44
+ 9.45003 4 3 ack 40 ------- 1 4.0 0.0 19 60
- 9.45003 4 3 ack 40 ------- 1 4.0 0.0 19 60
r 9.450032 3 4 tcp 1040 ------- 1 0.0 4.0 20 45
+ 9.450032 4 3 ack 40 ------- 1 4.0 0.0 20 61
- 9.450032 4 3 ack 40 ------- 1 4.0 0.0 20 61
r 9.450034 3 4 tcp 1040 ------- 1 0.0 4.0 21 46
+ 9.450034 4 3 ack 40 ------- 1 4.0 0.0 21 62
- 9.450034 4 3 ack 40 ------- 1 4.0 0.0 21 62
r 9.450036 3 4 tcp 1040 ------- 1 0.0 4.0 22 47
+ 9.450036 4 3 ack 40 ------- 1 4.0 0.0 22 63
- 9.450036 4 3 ack 40 ------- 1 4.0 0.0 22 63
r 9.450038 3 4 tcp 1040 ------- 1 0.0 4.0 23 48
+ 9.450038 4 3 ack 40 ------- 1 4.0 0.0 23 64
- 9.450038 4 3 ack 40 ------- 1 4.0 0.0 23 64
r 9.450041 3 4 tcp 1040 ------- 1 0.0 4.0 24 49
+ 9.450041 4 3 ack 40 ------- 1 4.0 0.0 24 65
- 9.450041 4 3 ack 40 ------- 1 4.0 0.0 24 65
r 9.450043 3 4 tcp 1040 ------- 1 0.0 4.0 25 50
+ 9.450043 4 3 ack 40 ------- 1 4.0 0.0 25 66
- 9.450043 4 3 ack 40 ------- 1 4.0 0.0 25 66
r 9.450045 3 4 tcp 1040 ------- 1 0.0 4.0 26 51
+ 9.450045 4 3 ack 40 ------- 1 4.0 0.0 26 67
- 9.450045 4 3 ack 40 ------- 1 4.0 0.0 26 67
r 9.450047 3 4 tcp 1040 ------- 1 0.0 4.0 27 52
+ 9.450047 4 3 ack 40 ------- 1 4.0 0.0 27 68
- 9.450047 4 3 ack 40 ------- 1 4.0 0.0 27 68
r 9.450049 3 4 tcp 1040 ------- 1 0.0 4.0 28 53
+ 9.450049 4 3 ack 40 ------- 1 4.0 0.0 28 69
- 9.450049 4 3 ack 40 ------- 1 4.0 0.0 28 69
r 9.450051 3 4 tcp 1040 ------- 1 0.0 4.0 29 54
+ 9.450051 4 3 ack 40 ------- 1 4.0 0.0 29 70
- 9.450051 4 3 ack 40 ------- 1 4.0 0.0 29 70
r 9.450053 3 4 tcp 1040 ------- 1 0.0 4.0 30 55
+ 9.450053 4 3 ack 40 ------- 1 4.0 0.0 30 71
- 9.450053 4 3 ack 40 ------- 1 4.0 0.0 30 71
r 9.600006 2 1 ack 40 ------- 2 5.0 1.0 2 38
9.60001  1  0  5  0  ack_ 2
9.60001  1  0  5  0  cwnd_ 2.500 
+ 9.600006 1 2 tcp 1040 ------- 2 1.0 5.0 4 72
- 9.600006 1 2 tcp 1040 ------- 2 1.0 5.0 4 72
9.60001  1  0  5  0  maxseq_ 4
r 9.900011 2 1 ack 40 ------- 2 5.0 1.0 3 39
9.90001  1  0  5  0  ack_ 3
9.90001  1  0  5  0  cwnd_ 2.900 
+ 9.900011 1 2 tcp 1040 ------- 2 1.0 5.0 5 73
- 9.900011 1 2 tcp 1040 ------- 2 1.0 5.0 5 73
9.90001  1  0  5  0  maxseq_ 5
r 9.950022 4 3 ack 40 ------- 1 4.0 0.0 15 56
+ 9.950022 3 2 ack 40 ------- 1 4.0 0.0 15 56
- 9.950022 3 2 ack 40 ------- 1 4.0 0.0 15 56
r 9.950024 4 3 ack 40 ------- 1 4.0 0.0 16 57
+ 9.950024 3 2 ack 40 ------- 1 4.0 0.0 16 57
- 9.950024 3 2 ack 40 ------- 1 4.0 0.0 16 57
r 9.950026 4 3 ack 40 ------- 1 4.0 0.0 17 58
+ 9.950026 3 2 ack 40 ------- 1 4.0 0.0 17 58
- 9.950026 3 2 ack 40 ------- 1 4.0 0.0 17 58
r 9.950028 4 3 ack 40 ------- 1 4.0 0.0 18 59
+ 9.950028 3 2 ack 40 ------- 1 4.0 0.0 18 59
- 9.950028 3 2 ack 40 ------- 1 4.0 0.0 18 59
r 9.95003 4 3 ack 40 ------- 1 4.0 0.0 19 60
+ 9.95003 3 2 ack 40 ------- 1 4.0 0.0 19 60
- 9.95003 3 2 ack 40 ------- 1 4.0 0.0 19 60
r 9.950032 4 3 ack 40 ------- 1 4.0 0.0 20 61
+ 9.950032 3 2 ack 40 ------- 1 4.0 0.0 20 61
- 9.950032 3 2 ack 40 ------- 1 4.0 0.0 20 61
r 9.950034 4 3 ack 40 ------- 1 4.0 0.0 21 62
+ 9.950034 3 2 ack 40 ------- 1 4.0 0.0 21 62
- 9.950034 3 2 ack 40 ------- 1 4.0 0.0 21 62
r 9.950036 4 3 ack 40 ------- 1 4.0 0.0 22 63
+ 9.950036 3 2 ack 40 ------- 1 4.0 0.0 22 63
- 9.950036 3 2 ack 40 ------- 1 4.0 0.0 22 63
r 9.950039 4 3 ack 40 ------- 1 4.0 0.0 23 64
+ 9.950039 3 2 ack 40 ------- 1 4.0 0.0 23 64
- 9.950039 3 2 ack 40 ------- 1 4.0 0.0 23 64
r 9.950041 4 3 ack 40 ------- 1 4.0 0.0 24 65
+ 9.950041 3 2 ack 40 ------- 1 4.0 0.0 24 65
- 9.950041 3 2 ack 40 ------- 1 4.0 0.0 24 65
r 9.950043 4 3 ack 40 ------- 1 4.0 0.0 25 66
+ 9.950043 3 2 ack 40 ------- 1 4.0 0.0 25 66
- 9.950043 3 2 ack 40 ------- 1 4.0 0.0 25 66
r 9.950045 4 3 ack 40 ------- 1 4.0 0.0 26 67
+ 9.950045 3 2 ack 40 ------- 1 4.0 0.0 26 67
- 9.950045 3 2 ack 40 ------- 1 4.0 0.0 26 67
r 9.950047 4 3 ack 40 ------- 1 4.0 0.0 27 68
+ 9.950047 3 2 ack 40 ------- 1 4.0 0.0 27 68
- 9.950047 3 2 ack 40 ------- 1 4.0 0.0 27 68
r 9.950049 4 3 ack 40 ------- 1 4.0 0.0 28 69
+ 9.950049 3 2 ack 40 ------- 1 4.0 0.0 28 69
- 9.950049 3 2 ack 40 ------- 1 4.0 0.0 28 69
r 9.950051 4 3 ack 40 ------- 1 4.0 0.0 29 70
+ 9.950051 3 2 ack 40 ------- 1 4.0 0.0 29 70
- 9.950051 3 2 ack 40 ------- 1 4.0 0.0 29 70
r 9.950053 4 3 ack 40 ------- 1 4.0 0.0 30 71
+ 9.950053 3 2 ack 40 ------- 1 4.0 0.0 30 71
- 9.950053 3 2 ack 40 ------- 1 4.0 0.0 30 71
r 10.000022 3 2 ack 40 ------- 1 4.0 0.0 15 56
+ 10.000022 2 0 ack 40 ------- 1 4.0 0.0 15 56