0.00000  0  0  4  0  cwnd_ 1.000 
0.00000  0  0  4  0  ssthresh_ 20
0.00000  0  0  4  0  ack_ -1
0.00000  0  0  4  0  maxseq_ -1
0.00000  0  0  4  0  rtt_ 0.000 
0.00000  1  0  5  0  cwnd_ 1.000 
0.00000  1  0  5  0  ssthresh_ 20
0.00000  1  0  5  0  ack_ -1
0.00000  1  0  5  0  maxseq_ -1
0.00000  1  0  5  0  rtt_ 0.000 
0.00000  0  0  4  0  ssthresh_ 1000
0.00000  1  0  5  0  ssthresh_ 1000
+ 0 1 2 tcp 1000 ------- 2 1.0 5.0 0 0
- 0 1 2 tcp 1000 ------- 2 1.0 5.0 0 0
0.00000  1  0  5  0  maxseq_ 0
+ 0 0 2 tcp 1000 ------- 1 0.0 4.0 0 1
- 0 0 2 tcp 1000 ------- 1 0.0 4.0 0 1
0.00000  0  0  4  0  maxseq_ 0
r 0.500002 0 2 tcp 1000 ------- 1 0.0 4.0 0 1
+ 0.500002 2 3 tcp 1000 ------- 1 0.0 4.0 0 1
- 0.500002 2 3 tcp 1000 ------- 1 0.0 4.0 0 1
r 0.550003 2 3 tcp 1000 ------- 1 0.0 4.0 0 1
+ 0.550003 3 4 tcp 1000 ------- 1 0.0 4.0 0 1
- 0.550003 3 4 tcp 1000 ------- 1 0.0 4.0 0 1
r 0.800002 1 2 tcp 1000 ------- 2 1.0 5.0 0 0
+ 0.800002 2 3 tcp 1000 ------- 2 1.0 5.0 0 0
- 0.800002 2 3 tcp 1000 ------- 2 1.0 5.0 0 0
r 0.850003 2 3 tcp 1000 ------- 2 1.0 5.0 0 0
+ 0.850003 3 5 tcp 1000 ------- 2 1.0 5.0 0 0
- 0.850003 3 5 tcp 1000 ------- 2 1.0 5.0 0 0
r 1.050005 3 4 tcp 1000 ------- 1 0.0 4.0 0 1
+ 1.050005 4 3 ack 40 ------- 1 4.0 0.0 0 2
- 1.050005 4 3 ack 40 ------- 1 4.0 0.0 0 2
r 1.550005 4 3 ack 40 ------- 1 4.0 0.0 0 2
+ 1.550005 3 2 ack 40 ------- 1 4.0 0.0 0 2
- 1.550005 3 2 ack 40 ------- 1 4.0 0.0 0 2
r 1.600005 3 2 ack 40 ------- 1 4.0 0.0 0 2
+ 1.600005 2 0 ack 40 ------- 1 4.0 0.0 0 2
- 1.600005 2 0 ack 40 ------- 1 4.0 0.0 0 2
r 1.650005 3 5 tcp 1000 ------- 2 1.0 5.0 0 0
+ 1.650005 5 3 ack 40 ------- 2 5.0 1.0 0 3
- 1.650005 5 3 ack 40 ------- 2 5.0 1.0 0 3
r 2.100005 2 0 ack 40 ------- 1 4.0 0.0 0 2
2.10001  0  0  4  0  ack_ 0
2.10001  0  0  4  0  rtt_ 2.100 
+ 2.100005 0 2 tcp 1000 ------- 1 0.0 4.0 1 4
- 2.100005 0 2 tcp 1000 ------- 1 0.0 4.0 1 4
2.10001  0  0  4  0  maxseq_ 1
r 2.450005 5 3 ack 40 ------- 2 5.0 1.0 0 3
+ 2.450005 3 2 ack 40 ------- 2 5.0 1.0 0 3
- 2.450005 3 2 ack 40 ------- 2 5.0 1.0 0 3
r 2.500005 3 2 ack 40 ------- 2 5.0 1.0 0 3
+ 2.500005 2 1 ack 40 ------- 2 5.0 1.0 0 3
- 2.500005 2 1 ack 40 ------- 2 5.0 1.0 0 3
r 2.600007 0 2 tcp 1000 ------- 1 0.0 4.0 1 4
+ 2.600007 2 3 tcp 1000 ------- 1 0.0 4.0 1 4
- 2.600007 2 3 tcp 1000 ------- 1 0.0 4.0 1 4
r 2.650008 2 3 tcp 1000 ------- 1 0.0 4.0 1 4
+ 2.650008 3 4 tcp 1000 ------- 1 0.0 4.0 1 4
- 2.650008 3 4 tcp 1000 ------- 1 0.0 4.0 1 4
3.00000  1  0  5  0  ssthresh_ 0
3.00000  1  0  5  0  ssthresh_ 2
3.00000  1  0  5  0  cwnd_ 2.000 
+ 3 1 2 tcp 1000 ------- 2 1.0 5.0 0 5
- 3 1 2 tcp 1000 ------- 2 1.0 5.0 0 5
+ 3 1 2 tcp 1000 ------- 2 1.0 5.0 1 6
3.00000  1  0  5  0  maxseq_ 1
- 3.000002 1 2 tcp 1000 ------- 2 1.0 5.0 1 6
r 3.15001 3 4 tcp 1000 ------- 1 0.0 4.0 1 4
+ 3.15001 4 3 ack 40 ------- 1 4.0 0.0 1 7
- 3.15001 4 3 ack 40 ------- 1 4.0 0.0 1 7
r 3.300005 2 1 ack 40 ------- 2 5.0 1.0 0 3
3.30001  1  0  5  0  ack_ 0
3.30001  1  0  5  0  cwnd_ 2.500 
+ 3.300005 1 2 tcp 1000 ------- 2 1.0 5.0 2 8
- 3.300005 1 2 tcp 1000 ------- 2 1.0 5.0 2 8
3.30001  1  0  5  0  maxseq_ 2
r 3.65001 4 3 ack 40 ------- 1 4.0 0.0 1 7
+ 3.65001 3 2 ack 40 ------- 1 4.0 0.0 1 7
- 3.65001 3 2 ack 40 ------- 1 4.0 0.0 1 7
r 3.70001 3 2 ack 40 ------- 1 4.0 0.0 1 7
+ 3.70001 2 0 ack 40 ------- 1 4.0 0.0 1 7
- 3.70001 2 0 ack 40 ------- 1 4.0 0.0 1 7
r 3.800002 1 2 tcp 1000 ------- 2 1.0 5.0 0 5
+ 3.800002 2 3 tcp 1000 ------- 2 1.0 5.0 0 5
- 3.800002 2 3 tcp 1000 ------- 2 1.0 5.0 0 5
r 3.800004 1 2 tcp 1000 ------- 2 1.0 5.0 1 6
+ 3.800004 2 3 tcp 1000 ------- 2 1.0 5.0 1 6
- 3.800004 2 3 tcp 1000 ------- 2 1.0 5.0 1 6
r 3.850003 2 3 tcp 1000 ------- 2 1.0 5.0 0 5
+ 3.850003 3 5 tcp 1000 ------- 2 1.0 5.0 0 5
- 3.850003 3 5 tcp 1000 ------- 2 1.0 5.0 0 5
r 3.850005 2 3 tcp 1000 ------- 2 1.0 5.0 1 6
+ 3.850005 3 5 tcp 1000 ------- 2 1.0 5.0 1 6
- 3.850005 3 5 tcp 1000 ------- 2 1.0 5.0 1 6
r 4.100007 1 2 tcp 1000 ------- 2 1.0 5.0 2 8
+ 4.100007 2 3 tcp 1000 ------- 2 1.0 5.0 2 8
- 4.100007 2 3 tcp 1000 ------- 2 1.0 5.0 2 8
r 4.150008 2 3 tcp 1000 ------- 2 1.0 5.0 2 8
+ 4.150008 3 5 tcp 1000 ------- 2 1.0 5.0 2 8
- 4.150008 3 5 tcp 1000 ------- 2 1.0 5.0 2 8
r 4.20001 2 0 ack 40 ------- 1 4.0 0.0 1 7
4.20001  0  0  4  0  cwnd_ 2.000 
4.20001  0  0  4  0  ack_ 1
4.20001  0  0  4  0  cwnd_ 3.000 
+ 4.20001 0 2 tcp 1000 ------- 1 0.0 4.0 2 9
- 4.20001 0 2 tcp 1000 ------- 1 0.0 4.0 2 9
4.20001  0  0  4  0  maxseq_ 2
+ 4.20001 0 2 tcp 1000 ------- 1 0.0 4.0 3 10
4.20001  0  0  4  0  maxseq_ 3
+ 4.20001 0 2 tcp 1000 ------- 1 0.0 4.0 4 11
4.20001  0  0  4  0  maxseq_ 4
- 4.200012 0 2 tcp 1000 ------- 1 0.0 4.0 3 10
- 4.200014 0 2 tcp 1000 ------- 1 0.0 4.0 4 11
r 4.650005 3 5 tcp 1000 ------- 2 1.0 5.0 0 5
+ 4.650005 5 3 ack 40 ------- 2 5.0 1.0 0 12
- 4.650005 5 3 ack 40 ------- 2 5.0 1.0 0 12
r 4.650007 3 5 tcp 1000 ------- 2 1.0 5.0 1 6
+ 4.650007 5 3 ack 40 ------- 2 5.0 1.0 1 13
- 4.650007 5 3 ack 40 ------- 2 5.0 1.0 1 13
r 4.700012 0 2 tcp 1000 ------- 1 0.0 4.0 2 9
+ 4.700012 2 3 tcp 1000 ------- 1 0.0 4.0 2 9
- 4.700012 2 3 tcp 1000 ------- 1 0.0 4.0 2 9
r 4.700014 0 2 tcp 1000 ------- 1 0.0 4.0 3 10
+ 4.700014 2 3 tcp 1000 ------- 1 0.0 4.0 3 10
- 4.700014 2 3 tcp 1000 ------- 1 0.0 4.0 3 10
r 4.700016 0 2 tcp 1000 ------- 1 0.0 4.0 4 11
+ 4.700016 2 3 tcp 1000 ------- 1 0.0 4.0 4 11
- 4.700016 2 3 tcp 1000 ------- 1 0.0 4.0 4 11
r 4.750013 2 3 tcp 1000 ------- 1 0.0 4.0 2 9
+ 4.750013 3 4 tcp 1000 ------- 1 0.0 4.0 2 9
- 4.750013 3 4 tcp 1000 ------- 1 0.0 4.0 2 9
r 4.750015 2 3 tcp 1000 ------- 1 0.0 4.0 3 10
+ 4.750015 3 4 tcp 1000 ------- 1 0.0 4.0 3 10
- 4.750015 3 4 tcp 1000 ------- 1 0.0 4.0 3 10
r 4.750017 2 3 tcp 1000 ------- 1 0.0 4.0 4 11
+ 4.750017 3 4 tcp 1000 ------- 1 0.0 4.0 4 11
- 4.750017 3 4 tcp 1000 ------- 1 0.0 4.0 4 11
r 4.95001 3 5 tcp 1000 ------- 2 1.0 5.0 2 8
+ 4.95001 5 3 ack 40 ------- 2 5.0 1.0 2 14
- 4.95001 5 3 ack 40 ------- 2 5.0 1.0 2 14
r 5.250015 3 4 tcp 1000 ------- 1 0.0 4.0 2 9
+ 5.250015 4 3 ack 40 ------- 1 4.0 0.0 2 15
- 5.250015 4 3 ack 40 ------- 1 4.0 0.0 2 15
r 5.250017 3 4 tcp 1000 ------- 1 0.0 4.0 3 10
+ 5.250017 4 3 ack 40 ------- 1 4.0 0.0 3 16
- 5.250017 4 3 ack 40 ------- 1 4.0 0.0 3 16
r 5.250019 3 4 tcp 1000 ------- 1 0.0 4.0 4 11
+ 5.250019 4 3 ack 40 ------- 1 4.0 0.0 4 17
- 5.250019 4 3 ack 40 ------- 1 4.0 0.0 4 17
r 5.450005 5 3 ack 40 ------- 2 5.0 1.0 0 12
+ 5.450005 3 2 ack 40 ------- 2 5.0 1.0 0 12
- 5.450005 3 2 ack 40 ------- 2 5.0 1.0 0 12
r 5.450007 5 3 ack 40 ------- 2 5.0 1.0 1 13
+ 5.450007 3 2 ack 40 ------- 2 5.0 1.0 1 13
- 5.450007 3 2 ack 40 ------- 2 5.0 1.0 1 13
r 5.500005 3 2 ack 40 ------- 2 5.0 1.0 0 12
+ 5.500005 2 1 ack 40 ------- 2 5.0 1.0 0 12
- 5.500005 2 1 ack 40 ------- 2 5.0 1.0 0 12
r 5.500007 3 2 ack 40 ------- 2 5.0 1.0 1 13
+ 5.500007 2 1 ack 40 ------- 2 5.0 1.0 1 13
- 5.500007 2 1 ack 40 ------- 2 5.0 1.0 1 13
r 5.75001 5 3 ack 40 ------- 2 5.0 1.0 2 14
+ 5.75001 3 2 ack 40 ------- 2 5.0 1.0 2 14
- 5.75001 3 2 ack 40 ------- 2 5.0 1.0 2 14
r 5.750015 4 3 ack 40 ------- 1 4.0 0.0 2 15
+ 5.750015 3 2 ack 40 ------- 1 4.0 0.0 2 15
- 5.750015 3 2 ack 40 ------- 1 4.0 0.0 2 15
r 5.750017 4 3 ack 40 ------- 1 4.0 0.0 3 16
+ 5.750017 3 2 ack 40 ------- 1 4.0 0.0 3 16
- 5.750017 3 2 ack 40 ------- 1 4.0 0.0 3 16
r 5.750019 4 3 ack 40 ------- 1 4.0 0.0 4 17
+ 5.750019 3 2 ack 40 ------- 1 4.0 0.0 4 17
- 5.750019 3 2 ack 40 ------- 1 4.0 0.0 4 17
r 5.80001 3 2 ack 40 ------- 2 5.0 1.0 2 14
+ 5.80001 2 1 ack 40 ------- 2 5.0 1.0 2 14
- 5.80001 2 1 ack 40 ------- 2 5.0 1.0 2 14
r 5.800016 3 2 ack 40 ------- 1 4.0 0.0 2 15
+ 5.800016 2 0 ack 40 ------- 1 4.0 0.0 2 15
- 5.800016 2 0 ack 40 ------- 1 4.0 0.0 2 15
r 5.800018 3 2 ack 40 ------- 1 4.0 0.0 3 16
+ 5.800018 2 0 ack 40 ------- 1 4.0 0.0 3 16
- 5.800018 2 0 ack 40 ------- 1 4.0 0.0 3 16
r 5.80002 3 2 ack 40 ------- 1 4.0 0.0 4 17
+ 5.80002 2 0 ack 40 ------- 1 4.0 0.0 4 17
- 5.80002 2 0 ack 40 ------- 1 4.0 0.0 4 17
r 6.300005 2 1 ack 40 ------- 2 5.0 1.0 0 12
r 6.300007 2 1 ack 40 ------- 2 5.0 1.0 1 13
6.30001  1  0  5  0  cwnd_ 2.000 
6.30001  1  0  5  0  ack_ 1
6.30001  1  0  5  0  rtt_ 3.300 
6.30001  1  0  5  0  cwnd_ 2.500 
+ 6.300007 1 2 tcp 1000 ------- 2 1.0 5.0 3 18
- 6.300007 1 2 tcp 1000 ------- 2 1.0 5.0 3 18
6.30001  1  0  5  0  maxseq_ 3
r 6.300016 2 0 ack 40 ------- 1 4.0 0.0 2 15
6.30002  0  0  4  0  ack_ 2
+ 6.300016 0 2 tcp 1000 ------- 1 0.0 4.0 5 19
- 6.300016 0 2 tcp 1000 ------- 1 0.0 4.0 5 19
6.30002  0  0  4  0  maxseq_ 5
r 6.300018 2 0 ack 40 ------- 1 4.0 0.0 3 16
6.30002  0  0  4  0  ack_ 3
+ 6.300018 0 2 tcp 1000 ------- 1 0.0 4.0 6 20
6.30002  0  0  4  0  maxseq_ 6
- 6.300018 0 2 tcp 1000 ------- 1 0.0 4.0 6 20
r 6.30002 2 0 ack 40 ------- 1 4.0 0.0 4 17
6.30002  0  0  4  0  ack_ 4
+ 6.30002 0 2 tcp 1000 ------- 1 0.0 4.0 7 21
6.30002  0  0  4  0  maxseq_ 7
- 6.30002 0 2 tcp 1000 ------- 1 0.0 4.0 7 21
r 6.60001 2 1 ack 40 ------- 2 5.0 1.0 2 14
6.60001  1  0  5  0  ack_ 2
+ 6.60001 1 2 tcp 1000 ------- 2 1.0 5.0 4 22
- 6.60001 1 2 tcp 1000 ------- 2 1.0 5.0 4 22
6.60001  1  0  5  0  maxseq_ 4
r 6.800018 0 2 tcp 1000 ------- 1 0.0 4.0 5 19
+ 6.800018 2 3 tcp 1000 ------- 1 0.0 4.0 5 19
- 6.800018 2 3 tcp 1000 ------- 1 0.0 4.0 5 19
r 6.80002 0 2 tcp 1000 ------- 1 0.0 4.0 6 20
+ 6.80002 2 3 tcp 1000 ------- 1 0.0 4.0 6 20
- 6.80002 2 3 tcp 1000 ------- 1 0.0 4.0 6 20
r 6.800022 0 2 tcp 1000 ------- 1 0.0 4.0 7 21
+ 6.800022 2 3 tcp 1000 ------- 1 0.0 4.0 7 21
- 6.800022 2 3 tcp 1000 ------- 1 0.0 4.0 7 21
r 6.850019 2 3 tcp 1000 ------- 1 0.0 4.0 5 19
+ 6.850019 3 4 tcp 1000 ------- 1 0.0 4.0 5 19
- 6.850019 3 4 tcp 1000 ------- 1 0.0 4.0 5 19
r 6.850021 2 3 tcp 1000 ------- 1 0.0 4.0 6 20
+ 6.850021 3 4 tcp 1000 ------- 1 0.0 4.0 6 20
- 6.850021 3 4 tcp 1000 ------- 1 0.0 4.0 6 20
r 6.850023 2 3 tcp 1000 ------- 1 0.0 4.0 7 21
+ 6.850023 3 4 tcp 1000 ------- 1 0.0 4.0 7 21
- 6.850023 3 4 tcp 1000 ------- 1 0.0 4.0 7 21
r 7.100009 1 2 tcp 1000 ------- 2 1.0 5.0 3 18
+ 7.100009 2 3 tcp 1000 ------- 2 1.0 5.0 3 18
- 7.100009 2 3 tcp 1000 ------- 2 1.0 5.0 3 18
r 7.15001 2 3 tcp 1000 ------- 2 1.0 5.0 3 18
+ 7.15001 3 5 tcp 1000 ------- 2 1.0 5.0 3 18
- 7.15001 3 5 tcp 1000 ------- 2 1.0 5.0 3 18
r 7.350021 3 4 tcp 1000 ------- 1 0.0 4.0 5 19
+ 7.350021 4 3 ack 40 ------- 1 4.0 0.0 5 23
- 7.350021 4 3 ack 40 ------- 1 4.0 0.0 5 23
r 7.350023 3 4 tcp 1000 ------- 1 0.0 4.0 6 20
+ 7.350023 4 3 ack 40 ------- 1 4.0 0.0 6 24
- 7.350023 4 3 ack 40 ------- 1 4.0 0.0 6 24
r 7.350025 3 4 tcp 1000 ------- 1 0.0 4.0 7 21
+ 7.350025 4 3 ack 40 ------- 1 4.0 0.0 7 25
- 7.350025 4 3 ack 40 ------- 1 4.0 0.0 7 25
r 7.400012 1 2 tcp 1000 ------- 2 1.0 5.0 4 22
+ 7.400012 2 3 tcp 1000 ------- 2 1.0 5.0 4 22
- 7.400012 2 3 tcp 1000 ------- 2 1.0 5.0 4 22
r 7.450013 2 3 tcp 1000 ------- 2 1.0 5.0 4 22
+ 7.450013 3 5 tcp 1000 ------- 2 1.0 5.0 4 22
- 7.450013 3 5 tcp 1000 ------- 2 1.0 5.0 4 22
r 7.850021 4 3 ack 40 ------- 1 4.0 0.0 5 23
+ 7.850021 3 2 ack 40 ------- 1 4.0 0.0 5 23
- 7.850021 3 2 ack 40 ------- 1 4.0 0.0 5 23
r 7.850023 4 3 ack 40 ------- 1 4.0 0.0 6 24
+ 7.850023 3 2 ack 40 ------- 1 4.0 0.0 6 24
- 7.850023 3 2 ack 40 ------- 1 4.0 0.0 6 24
r 7.850025 4 3 ack 40 ------- 1 4.0 0.0 7 25
+ 7.850025 3 2 ack 40 ------- 1 4.0 0.0 7 25
- 7.850025 3 2 ack 40 ------- 1 4.0 0.0 7 25
r 7.900021 3 2 ack 40 ------- 1 4.0 0.0 5 23
+ 7.900021 2 0 ack 40 ------- 1 4.0 0.0 5 23
- 7.900021 2 0 ack 40 ------- 1 4.0 0.0 5 23
r 7.900023 3 2 ack 40 ------- 1 4.0 0.0 6 24
+ 7.900023 2 0 ack 40 ------- 1 4.0 0.0 6 24
- 7.900023 2 0 ack 40 ------- 1 4.0 0.0 6 24
r 7.900025 3 2 ack 40 ------- 1 4.0 0.0 7 25
+ 7.900025 2 0 ack 40 ------- 1 4.0 0.0 7 25
- 7.900025 2 0 ack 40 ------- 1 4.0 0.0 7 25
r 7.950012 3 5 tcp 1000 ------- 2 1.0 5.0 3 18
+ 7.950012 5 3 ack 40 ------- 2 5.0 1.0 3 26
- 7.950012 5 3 ack 40 ------- 2 5.0 1.0 3 26
r 8.250015 3 5 tcp 1000 ------- 2 1.0 5.0 4 22
+ 8.250015 5 3 ack 40 ------- 2 5.0 1.0 4 27
- 8.250015 5 3 ack 40 ------- 2 5.0 1.0 4 27
r 8.400021 2 0 ack 40 ------- 1 4.0 0.0 5 23
8.40002  0  0  4  0  ack_ 5
8.40002  0  0  4  0  cwnd_ 4.000 
+ 8.400021 0 2 tcp 1000 ------- 1 0.0 4.0 8 28
- 8.400021 0 2 tcp 1000 ------- 1 0.0 4.0 8 28
8.40002  0  0  4  0  maxseq_ 8
+ 8.400021 0 2 tcp 1000 ------- 1 0.0 4.0 9 29
8.40002  0  0  4  0  maxseq_ 9
r 8.400023 2 0 ack 40 ------- 1 4.0 0.0 6 24
8.40002  0  0  4  0  ack_ 6
8.40002  0  0  4  0  cwnd_ 5.000 
+ 8.400023 0 2 tcp 1000 ------- 1 0.0 4.0 10 30
8.40002  0  0  4  0  maxseq_ 10
+ 8.400023 0 2 tcp 1000 ------- 1 0.0 4.0 11 31
8.40002  0  0  4  0  maxseq_ 11
- 8.400023 0 2 tcp 1000 ------- 1 0.0 4.0 9 29
r 8.400025 2 0 ack 40 ------- 1 4.0 0.0 7 25
8.40002  0  0  4  0  ack_ 7
8.40002  0  0  4  0  cwnd_ 6.000 
+ 8.400025 0 2 tcp 1000 ------- 1 0.0 4.0 12 32
8.40002  0  0  4  0  maxseq_ 12
+ 8.400025 0 2 tcp 1000 ------- 1 0.0 4.0 13 33
8.40002  0  0  4  0  maxseq_ 13
- 8.400025 0 2 tcp 1000 ------- 1 0.0 4.0 10 30
- 8.400027 0 2 tcp 1000 ------- 1 0.0 4.0 11 31
- 8.400029 0 2 tcp 1000 ------- 1 0.0 4.0 12 32
- 8.400031 0 2 tcp 1000 ------- 1 0.0 4.0 13 33
r 8.750012 5 3 ack 40 ------- 2 5.0 1.0 3 26
+ 8.750012 3 2 ack 40 ------- 2 5.0 1.0 3 26
- 8.750012 3 2 ack 40 ------- 2 5.0 1.0 3 26
r 8.800012 3 2 ack 40 ------- 2 5.0 1.0 3 26
+ 8.800012 2 1 ack 40 ------- 2 5.0 1.0 3 26
- 8.800012 2 1 ack 40 ------- 2 5.0 1.0 3 26
r 8.900023 0 2 tcp 1000 ------- 1 0.0 4.0 8 28
+ 8.900023 2 3 tcp 1000 ------- 1 0.0 4.0 8 28
- 8.900023 2 3 tcp 1000 ------- 1 0.0 4.0 8 28
r 8.900025 0 2 tcp 1000 ------- 1 0.0 4.0 9 29
+ 8.900025 2 3 tcp 1000 ------- 1 0.0 4.0 9 29
- 8.900025 2 3 tcp 1000 ------- 1 0.0 4.0 9 29
r 8.900027 0 2 tcp 1000 ------- 1 0.0 4.0 10 30
+ 8.900027 2 3 tcp 1000 ------- 1 0.0 4.0 10 30
- 8.900027 2 3 tcp 1000 ------- 1 0.0 4.0 10 30
r 8.900029 0 2 tcp 1000 ------- 1 0.0 4.0 11 31
+ 8.900029 2 3 tcp 1000 ------- 1 0.0 4.0 11 31
- 8.900029 2 3 tcp 1000 ------- 1 0.0 4.0 11 31
r 8.900031 0 2 tcp 1000 ------- 1 0.0 4.0 12 32
+ 8.900031 2 3 tcp 1000 ------- 1 0.0 4.0 12 32
- 8.900031 2 3 tcp 1000 ------- 1 0.0 4.0 12 32
r 8.900033 0 2 tcp 1000 ------- 1 0.0 4.0 13 33
+ 8.900033 2 3 tcp 1000 ------- 1 0.0 4.0 13 33
- 8.900033 2 3 tcp 1000 ------- 1 0.0 4.0 13 33
r 8.950024 2 3 tcp 1000 ------- 1 0.0 4.0 8 28
+ 8.950024 3 4 tcp 1000 ------- 1 0.0 4.0 8 28
- 8.950024 3 4 tcp 1000 ------- 1 0.0 4.0 8 28
r 8.950026 2 3 tcp 1000 ------- 1 0.0 4.0 9 29
+ 8.950026 3 4 tcp 1000 ------- 1 0.0 4.0 9 29
- 8.950026 3 4 tcp 1000 ------- 1 0.0 4.0 9 29
r 8.950028 2 3 tcp 1000 ------- 1 0.0 4.0 10 30
+ 8.950028 3 4 tcp 1000 ------- 1 0.0 4.0 10 30
- 8.950028 3 4 tcp 1000 ------- 1 0.0 4.0 10 30
r 8.95003 2 3 tcp 1000 ------- 1 0.0 4.0 11 31
+ 8.95003 3 4 tcp 1000 ------- 1 0.0 4.0 11 31
- 8.95003 3 4 tcp 1000 ------- 1 0.0 4.0 11 31
r 8.950032 2 3 tcp 1000 ------- 1 0.0 4.0 12 32
+ 8.950032 3 4 tcp 1000 ------- 1 0.0 4.0 12 32
- 8.950032 3 4 tcp 1000 ------- 1 0.0 4.0 12 32
r 8.950034 2 3 tcp 1000 ------- 1 0.0 4.0 13 33
+ 8.950034 3 4 tcp 1000 ------- 1 0.0 4.0 13 33
- 8.950034 3 4 tcp 1000 ------- 1 0.0 4.0 13 33
r 9.050015 5 3 ack 40 ------- 2 5.0 1.0 4 27
+ 9.050015 3 2 ack 40 ------- 2 5.0 1.0 4 27
- 9.050015 3 2 ack 40 ------- 2 5.0 1.0 4 27
r 9.100016 3 2 ack 40 ------- 2 5.0 1.0 4 27
+ 9.100016 2 1 ack 40 ------- 2 5.0 1.0 4 27
- 9.100016 2 1 ack 40 ------- 2 5.0 1.0 4 27
r 9.450026 3 4 tcp 1000 ------- 1 0.0 4.0 8 28
+ 9.450026 4 3 ack 40 ------- 1 4.0 0.0 8 34
- 9.450026 4 3 ack 40 ------- 1 4.0 0.0 8 34
r 9.450028 3 4 tcp 1000 ------- 1 0.0 4.0 9 29
+ 9.450028 4 3 ack 40 ------- 1 4.0 0.0 9 35
- 9.450028 4 3 ack 40 ------- 1 4.0 0.0 9 35
r 9.45003 3 4 tcp 1000 ------- 1 0.0 4.0 10 30
+ 9.45003 4 3 ack 40 ------- 1 4.0 0.0 10 36
- 9.45003 4 3 ack 40 ------- 1 4.0 0.0 10 36
r 9.450032 3 4 tcp 1000 ------- 1 0.0 4.0 11 31
+ 9.450032 4 3 ack 40 ------- 1 4.0 0.0 11 37
- 9.450032 4 3 ack 40 ------- 1 4.0 0.0 11 37
r 9.450034 3 4 tcp 1000 ------- 1 0.0 4.0 12 32
+ 9.450034 4 3 ack 40 ------- 1 4.0 0.0 12 38
- 9.450034 4 3 ack 40 ------- 1 4.0 0.0 12 38
r 9.450036 3 4 tcp 1000 ------- 1 0.0 4.0 13 33
+ 9.450036 4 3 ack 40 ------- 1 4.0 0.0 13 39
- 9.450036 4 3 ack 40 ------- 1 4.0 0.0 13 39
r 9.600012 2 1 ack 40 ------- 2 5.0 1.0 3 26
9.60001  1  0  5  0  ack_ 3
+ 9.600012 1 2 tcp 1000 ------- 2 1.0 5.0 5 40
- 9.600012 1 2 tcp 1000 ------- 2 1.0 5.0 5 40
9.60001  1  0  5  0  maxseq_ 5
r 9.900016 2 1 ack 40 ------- 2 5.0 1.0 4 27
9.90002  1  0  5  0  ack_ 4
+ 9.900016 1 2 tcp 1000 ------- 2 1.0 5.0 6 41
- 9.900016 1 2 tcp 1000 ------- 2 1.0 5.0 6 41
9.90002  1  0  5  0  maxseq_ 6
r 9.950026 4 3 ack 40 ------- 1 4.0 0.0 8 34
+ 9.950026 3 2 ack 40 ------- 1 4.0 0.0 8 34
- 9.950026 3 2 ack 40 ------- 1 4.0 0.0 8 34
r 9.950028 4 3 ack 40 ------- 1 4.0 0.0 9 35
+ 9.950028 3 2 ack 40 ------- 1 4.0 0.0 9 35
- 9.950028 3 2 ack 40 ------- 1 4.0 0.0 9 35
r 9.95003 4 3 ack 40 ------- 1 4.0 0.0 10 36
+ 9.95003 3 2 ack 40 ------- 1 4.0 0.0 10 36
- 9.95003 3 2 ack 40 ------- 1 4.0 0.0 10 36
r 9.950032 4 3 ack 40 ------- 1 4.0 0.0 11 37
+ 9.950032 3 2 ack 40 ------- 1 4.0 0.0 11 37
- 9.950032 3 2 ack 40 ------- 1 4.0 0.0 11 37
r 9.950034 4 3 ack 40 ------- 1 4.0 0.0 12 38
+ 9.950034 3 2 ack 40 ------- 1 4.0 0.0 12 38
- 9.950034 3 2 ack 40 ------- 1 4.0 0.0 12 38
r 9.950036 4 3 ack 40 ------- 1 4.0 0.0 13 39
+ 9.950036 3 2 ack 40 ------- 1 4.0 0.0 13 39
- 9.950036 3 2 ack 40 ------- 1 4.0 0.0 13 39
r 10.000026 3 2 ack 40 ------- 1 4.0 0.0 8 34
+ 10.000026 2 0 ack 40 ------- 1 4.0 0.0 8 34
- 10.000026 2 0 ack 40 ------- 1 4.0 0.0 8 34
r 10.000028 3 2 ack 40 ------- 1 4.0 0.0 9 35
+ 10.000028 2 0 ack 40 ------- 1 4.0 0.0 9 35
- 10.000028 2 0 ack 40 ------- 1 4.0 0.0 9 35
r 10.00003 3 2 ack 40 ------- 1 4.0 0.0 10 36
+ 10.00003 2 0 ack 40 ------- 1 4.0 0.0 10 36
- 10.00003 2 0 ack 40 ------- 1 4.0 0.0 10 36
r 10.000032 3 2 ack 40 ------- 1 4.0 0.0 11 37
+ 10.000032 2 0 ack 40 ------- 1 4.0 0.0 11 37
- 10.000032 2 0 ack 40 ------- 1 4.0 0.0 11 37
r 10.000034 3 2 ack 40 ------- 1 4.0 0.0 12 38
+ 10.000034 2 0 ack 40 ------- 1 4.0 0.0 12 38
- 10.000034 2 0 ack 40 ------- 1 4.0 0.0 12 38
r 10.000036 3 2 ack 40 ------- 1 4.0 0.0 13 39
+ 10.000036 2 0 ack 40 ------- 1 4.0 0.0 13 39
- 10.000036 2 0 ack 40 ------- 1 4.0 0.0 13 39
r 10.400014 1 2 tcp 1000 ------- 2 1.0 5.0 5 40
+ 10.400014 2 3 tcp 1000 ------- 2 1.0 5.0 5 40
- 10.400014 2 3 tcp 1000 ------- 2 1.0 5.0 5 40
r 10.450015 2 3 tcp 1000 ------- 2 1.0 5.0 5 40
+ 10.450015 3 5 tcp 1000 ------- 2 1.0 5.0 5 40
- 10.450015 3 5 tcp 1000 ------- 2 1.0 5.0 5 40
r 10.500026 2 0 ack 40 ------- 1 4.0 0.0 8 34
10.50003 0  0  4  0  ack_ 8
+ 10.500026 0 2 tcp 1000 ------- 1 0.0 4.0 14 42
- 10.500026 0 2 tcp 1000 ------- 1 0.0 4.0 14 42
10.50003 0  0  4  0  maxseq_ 14
r 10.500028 2 0 ack 40 ------- 1 4.0 0.0 9 35
10.50003 0  0  4  0  ack_ 9
+ 10.500028 0 2 tcp 1000 ------- 1 0.0 4.0 15 43
10.50003 0  0  4  0  maxseq_ 15
- 10.500028 0 2 tcp 1000 ------- 1 0.0 4.0 15 43
r 10.50003 2 0 ack 40 ------- 1 4.0 0.0 10 36
10.50003 0  0  4  0  ack_ 10
+ 10.50003 0 2 tcp 1000 ------- 1 0.0 4.0 16 44
10.50003 0  0  4  0  maxseq_ 16
- 10.50003 0 2 tcp 1000 ------- 1 0.0 4.0 16 44
r 10.500032 2 0 ack 40 ------- 1 4.0 0.0 11 37
10.50003 0  0  4  0  ack_ 11
+ 10.500032 0 2 tcp 1000 ------- 1 0.0 4.0 17 45
10.50003 0  0  4  0  maxseq_ 17
- 10.500032 0 2 tcp 1000 ------- 1 0.0 4.0 17 45
r 10.500034 2 0 ack 40 ------- 1 4.0 0.0 12 38
10.50003 0  0  4  0  ack_ 12
+ 10.500034 0 2 tcp 1000 ------- 1 0.0 4.0 18 46
10.50003 0  0  4  0  maxseq_ 18
- 10.500034 0 2 tcp 1000 ------- 1 0.0 4.0 18 46
r 10.500036 2 0 ack 40 ------- 1 4.0 0.0 13 39
10.50004 0  0  4  0  ack_ 13
+ 10.500036 0 2 tcp 1000 ------- 1 0.0 4.0 19 47
10.50004 0  0  4  0  maxseq_ 19
- 10.500036 0 2 tcp 1000 ------- 1 0.0 4.0 19 47
r 10.700018 1 2 tcp 1000 ------- 2 1.0 5.0 6 41
+ 10.700018 2 3 tcp 1000 ------- 2 1.0 5.0 6 41
- 10.700018 2 3 tcp 1000 ------- 2 1.0 5.0 6 41
r 10.750019 2 3 tcp 1000 ------- 2 1.0 5.0 6 41
+ 10.750019 3 5 tcp 1000 ------- 2 1.0 5.0 6 41
- 10.750019 3 5 tcp 1000 ------- 2 1.0 5.0 6 41
r 11.000028 0 2 tcp 1000 ------- 1 0.0 4.0 14 42
+ 11.000028 2 3 tcp 1000 ------- 1 0.0 4.0 14 42
- 11.000028 2 3 tcp 1000 ------- 1 0.0 4.0 14 42
r 11.00003 0 2 tcp 1000 ------- 1 0.0 4.0 15 43
+ 11.00003 2 3 tcp 1000 ------- 1 0.0 4.0 15 43
- 11.00003 2 3 tcp 1000 ------- 1 0.0 4.0 15 43
r 11.000032 0 2 tcp 1000 ------- 1 0.0 4.0 16 44
+ 11.000032 2 3 tcp 1000 ------- 1 0.0 4.0 16 44
- 11.000032 2 3 tcp 1000 ------- 1 0.0 4.0 16 44
r 11.000034 0 2 tcp 1000 ------- 1 0.0 4.0 17 45
+ 11.000034 2 3 tcp 1000 ------- 1 0.0 4.0 17 45
- 11.000034 2 3 tcp 1000 ------- 1 0.0 4.0 17 45
r 11.000036 0 2 tcp 1000 ------- 1 0.0 4.0 18 46
+ 11.000036 2 3 tcp 1000 ------- 1 0.0 4.0 18 46
- 11.000036 2 3 tcp 1000 ------- 1 0.0 4.0 18 46
r 11.000038 0 2 tcp 1000 ------- 1 0.0 4.0 19 47
+ 11.000038 2 3 tcp 1000 ------- 1 0.0 4.0 19 47
- 11.000038 2 3 tcp 1000 ------- 1 0.0 4.0 19 47
r 11.050029 2 3 tcp 1000 ------- 1 0.0 4.0 14 42
+ 11.050029 3 4 tcp 1000 ------- 1 0.0 4.0 14 42
- 11.050029 3 4 tcp 1000 ------- 1 0.0 4.0 14 42
r 11.050031 2 3 tcp 1000 ------- 1 0.0 4.0 15 43
+ 11.050031 3 4 tcp 1000 ------- 1 0.0 4.0 15 43
- 11.050031 3 4 tcp 1000 ------- 1 0.0 4.0 15 43
r 11.050033 2 3 tcp 1000 ------- 1 0.0 4.0 16 44
+ 11.050033 3 4 tcp 1000 ------- 1 0.0 4.0 16 44
- 11.050033 3 4 tcp 1000 ------- 1 0.0 4.0 16 44
r 11.050035 2 3 tcp 1000 ------- 1 0.0 4.0 17 45
+ 11.050035 3 4 tcp 1000 ------- 1 0.0 4.0 17 45
- 11.050035 3 4 tcp 1000 ------- 1 0.0 4.0 17 45
r 11.050037 2 3 tcp 1000 ------- 1 0.0 4.0 18 46
+ 11.050037 3 4 tcp 1000 ------- 1 0.0 4.0 18 46
- 11.050037 3 4 tcp 1000 ------- 1 0.0 4.0 18 46
r 11.050039 2 3 tcp 1000 ------- 1 0.0 4.0 19 47
+ 11.050039 3 4 tcp 1000 ------- 1 0.0 4.0 19 47
- 11.050039 3 4 tcp 1000 ------- 1 0.0 4.0 19 47
r 11.250017 3 5 tcp 1000 ------- 2 1.0 5.0 5 40
+ 11.250017 5 3 ack 40 ------- 2 5.0 1.0 5 48
- 11.250017 5 3 ack 40 ------- 2 5.0 1.0 5 48
r 11.550021 3 5 tcp 1000 ------- 2 1.0 5.0 6 41
+ 11.550021 5 3 ack 40 ------- 2 5.0 1.0 6 49
- 11.550021 5 3 ack 40 ------- 2 5.0 1.0 6 49
r 11.550031 3 4 tcp 1000 ------- 1 0.0 4.0 14 42
+ 11.550031 4 3 ack 40 ------- 1 4.0 0.0 14 50
- 11.550031 4 3 ack 40 ------- 1 4.0 0.0 14 50
r 11.550033 3 4 tcp 1000 ------- 1 0.0 4.0 15 43
+ 11.550033 4 3 ack 40 ------- 1 4.0 0.0 15 51
- 11.550033 4 3 ack 40 ------- 1 4.0 0.0 15 51
r 11.550035 3 4 tcp 1000 ------- 1 0.0 4.0 16 44
+ 11.550035 4 3 ack 40 ------- 1 4.0 0.0 16 52
- 11.550035 4 3 ack 40 ------- 1 4.0 0.0 16 52
r 11.550037 3 4 tcp 1000 ------- 1 0.0 4.0 17 45
+ 11.550037 4 3 ack 40 ------- 1 4.0 0.0 17 53
- 11.550037 4 3 ack 40 ------- 1 4.0 0.0 17 53
r 11.550039 3 4 tcp 1000 ------- 1 0.0 4.0 18 46
+ 11.550039 4 3 ack 40 ------- 1 4.0 0.0 18 54
- 11.550039 4 3 ack 40 ------- 1 4.0 0.0 18 54
r 11.550041 3 4 tcp 1000 ------- 1 0.0 4.0 19 47
+ 11.550041 4 3 ack 40 ------- 1 4.0 0.0 19 55
- 11.550041 4 3 ack 40 ------- 1 4.0 0.0 19 55
r 12.050017 5 3 ack 40 ------- 2 5.0 1.0 5 48
+ 12.050017 3 2 ack 40 ------- 2 5.0 1.0 5 48
- 12.050017 3 2 ack 40 ------- 2 5.0 1.0 5 48
r 12.050031 4 3 ack 40 ------- 1 4.0 0.0 14 50
+ 12.050031 3 2 ack 40 ------- 1 4.0 0.0 14 50
- 12.050031 3 2 ack 40 ------- 1 4.0 0.0 14 50
r 12.050033 4 3 ack 40 ------- 1 4.0 0.0 15 51
+ 12.050033 3 2 ack 40 ------- 1 4.0 0.0 15 51
- 12.050033 3 2 ack 40 ------- 1 4.0 0.0 15 51
r 12.050035 4 3 ack 40 ------- 1 4.0 0.0 16 52
+ 12.050035 3 2 ack 40 ------- 1 4.0 0.0 16 52
- 12.050035 3 2 ack 40 ------- 1 4.0 0.0 16 52
r 12.050037 4 3 ack 40 ------- 1 4.0 0.0 17 53
+ 12.050037 3 2 ack 40 ------- 1 4.0 0.0 17 53
- 12.050037 3 2 ack 40 ------- 1 4.0 0.0 17 53
r 12.050039 4 3 ack 40 ------- 1 4.0 0.0 18 54
+ 12.050039 3 2 ack 40 ------- 1 4.0 0.0 18 54
- 12.050039 3 2 ack 40 ------- 1 4.0 0.0 18 54
r 12.050041 4 3 ack 40 ------- 1 4.0 0.0 19 55
+ 12.050041 3 2 ack 40 ------- 1 4.0 0.0 19 55
- 12.050041 3 2 ack 40 ------- 1 4.0 0.0 19 55
r 12.100018 3 2 ack 40 ------- 2 5.0 1.0 5 48
+ 12.100018 2 1 ack 40 ------- 2 5.0 1.0 5 48
- 12.100018 2 1 ack 40 ------- 2 5.0 1.0 5 48
r 12.100031 3 2 ack 40 ------- 1 4.0 0.0 14 50
+ 12.100031 2 0 ack 40 ------- 1 4.0 0.0 14 50
- 12.100031 2 0 ack 40 ------- 1 4.0 0.0 14 50
r 12.100033 3 2 ack 40 ------- 1 4.0 0.0 15 51
+ 12.100033 2 0 ack 40 ------- 1 4.0 0.0 15 51
- 12.100033 2 0 ack 40 ------- 1 4.0 0.0 15 51
r 12.100035 3 2 ack 40 ------- 1 4.0 0.0 16 52
+ 12.100035 2 0 ack 40 ------- 1 4.0 0.0 16 52
- 12.100035 2 0 ack 40 ------- 1 4.0 0.0 16 52
r 12.100037 3 2 ack 40 ------- 1 4.0 0.0 17 53
+ 12.100037 2 0 ack 40 ------- 1 4.0 0.0 17 53
- 12.100037 2 0 ack 40 ------- 1 4.0 0.0 17 53
r 12.100039 3 2 ack 40 ------- 1 4.0 0.0 18 54
+ 12.100039 2 0 ack 40 ------- 1 4.0 0.0 18 54
- 12.100039 2 0 ack 40 ------- 1 4.0 0.0 18 54
r 12.100041 3 2 ack 40 ------- 1 4.0 0.0 19 55
+ 12.100041 2 0 ack 40 ------- 1 4.0 0.0 19 55
- 12.100041 2 0 ack 40 ------- 1 4.0 0.0 19 55
r 12.350021 5 3 ack 40 ------- 2 5.0 1.0 6 49
+ 12.350021 3 2 ack 40 ------- 2 5.0 1.0 6 49
- 12.350021 3 2 ack 40 ------- 2 5.0 1.0 6 49
r 12.400021 3 2 ack 40 ------- 2 5.0 1.0 6 49
+ 12.400021 2 1 ack 40 ------- 2 5.0 1.0 6 49
- 12.400021 2 1 ack 40 ------- 2 5.0 1.0 6 49
r 12.600031 2 0 ack 40 ------- 1 4.0 0.0 14 50
12.60003 0  0  4  0  ack_ 14
12.60003 0  0  4  0  cwnd_ 7.000 
+ 12.600031 0 2 tcp 1000 ------- 1 0.0 4.0 20 56
- 12.600031 0 2 tcp 1000 ------- 1 0.0 4.0 20 56
12.60003 0  0  4  0  maxseq_ 20
+ 12.600031 0 2 tcp 1000 ------- 1 0.0 4.0 21 57
12.60003 0  0  4  0  maxseq_ 21
r 12.600033 2 0 ack 40 ------- 1 4.0 0.0 15 51
12.60003 0  0  4  0  ack_ 15
12.60003 0  0  4  0  cwnd_ 8.000 
+ 12.600033 0 2 tcp 1000 ------- 1 0.0 4.0 22 58
12.60003 0  0  4  0  maxseq_ 22
+ 12.600033 0 2 tcp 1000 ------- 1 0.0 4.0 23 59
12.60003 0  0  4  0  maxseq_ 23
- 12.600033 0 2 tcp 1000 ------- 1 0.0 4.0 21 57
r 12.600035 2 0 ack 40 ------- 1 4.0 0.0 16 52
12.60004 0  0  4  0  ack_ 16
12.60004 0  0  4  0  cwnd_ 9.000 
+ 12.600035 0 2 tcp 1000 ------- 1 0.0 4.0 24 60
12.60004 0  0  4  0  maxseq_ 24
+ 12.600035 0 2 tcp 1000 ------- 1 0.0 4.0 25 61
12.60004 0  0  4  0  maxseq_ 25
- 12.600035 0 2 tcp 1000 ------- 1 0.0 4.0 22 58
r 12.600037 2 0 ack 40 ------- 1 4.0 0.0 17 53
12.60004 0  0  4  0  ack_ 17
12.60004 0  0  4  0  cwnd_ 10.000
+ 12.600037 0 2 tcp 1000 ------- 1 0.0 4.0 26 62
12.60004 0  0  4  0  maxseq_ 26
+ 12.600037 0 2 tcp 1000 ------- 1 0.0 4.0 27 63
12.60004 0  0  4  0  maxseq_ 27
- 12.600037 0 2 tcp 1000 ------- 1 0.0 4.0 23 59
r 12.600039 2 0 ack 40 ------- 1 4.0 0.0 18 54
12.60004 0  0  4  0  ack_ 18
12.60004 0  0  4  0  cwnd_ 11.000
+ 12.600039 0 2 tcp 1000 ------- 1 0.0 4.0 28 64
12.60004 0  0  4  0  maxseq_ 28
+ 12.600039 0 2 tcp 1000 ------- 1 0.0 4.0 29 65
12.60004 0  0  4  0  maxseq_ 29
- 12.600039 0 2 tcp 1000 ------- 1 0.0 4.0 24 60
r 12.600041 2 0 ack 40 ------- 1 4.0 0.0 19 55
12.60004 0  0  4  0  ack_ 19
12.60004 0  0  4  0  cwnd_ 12.000
+ 12.600041 0 2 tcp 1000 ------- 1 0.0 4.0 30 66
12.60004 0  0  4  0  maxseq_ 30
+ 12.600041 0 2 tcp 1000 ------- 1 0.0 4.0 31 67
12.60004 0  0  4  0  maxseq_ 31
- 12.600041 0 2 tcp 1000 ------- 1 0.0 4.0 25 61
- 12.600043 0 2 tcp 1000 ------- 1 0.0 4.0 26 62
- 12.600045 0 2 tcp 1000 ------- 1 0.0 4.0 27 63
- 12.600047 0 2 tcp 1000 ------- 1 0.0 4.0 28 64
- 12.600049 0 2 tcp 1000 ------- 1 0.0 4.0 29 65
- 12.600051 0 2 tcp 1000 ------- 1 0.0 4.0 30 66
- 12.600053 0 2 tcp 1000 ------- 1 0.0 4.0 31 67
r 12.900018 2 1 ack 40 ------- 2 5.0 1.0 5 48
12.90002 1  0  5  0  ack_ 5
+ 12.900018 1 2 tcp 1000 ------- 2 1.0 5.0 7 68
- 12.900018 1 2 tcp 1000 ------- 2 1.0 5.0 7 68
12.90002 1  0  5  0  maxseq_ 7
r 13.100033 0 2 tcp 1000 ------- 1 0.0 4.0 20 56
+ 13.100033 2 3 tcp 1000 ------- 1 0.0 4.0 20 56
- 13.100033 2 3 tcp 1000 ------- 1 0.0 4.0 20 56
r 13.100035 0 2 tcp 1000 ------- 1 0.0 4.0 21 57
+ 13.100035 2 3 tcp 1000 ------- 1 0.0 4.0 21 57
- 13.100035 2 3 tcp 1000 ------- 1 0.0 4.0 21 57
r 13.100037 0 2 tcp 1000 ------- 1 0.0 4.0 22 58
+ 13.100037 2 3 tcp 1000 ------- 1 0.0 4.0 22 58
- 13.100037 2 3 tcp 1000 ------- 1 0.0 4.0 22 58
r 13.100039 0 2 tcp 1000 ------- 1 0.0 4.0 23 59
+ 13.100039 2 3 tcp 1000 ------- 1 0.0 4.0 23 59
- 13.100039 2 3 tcp 1000 ------- 1 0.0 4.0 23 59
r 13.100041 0 2 tcp 1000 ------- 1 0.0 4.0 24 60
+ 13.100041 2 3 tcp 1000 ------- 1 0.0 4.0 24 60
- 13.100041 2 3 tcp 1000 ------- 1 0.0 4.0 24 60
r 13.100043 0 2 tcp 1000 ------- 1 0.0 4.0 25 61
+ 13.100043 2 3 tcp 1000 ------- 1 0.0 4.0 25 61
- 13.100043 2 3 tcp 1000 ------- 1 0.0 4.0 25 61
r 13.100045 0 2 tcp 1000 ------- 1 0.0 4.0 26 62
+ 13.100045 2 3 tcp 1000 ------- 1 0.0 4.0 26 62
- 13.100045 2 3 tcp 1000 ------- 1 0.0 4.0 26 62
r 13.100047 0 2 tcp 1000 ------- 1 0.0 4.0 27 63
+ 13.100047 2 3 tcp 1000 ------- 1 0.0 4.0 27 63
- 13.100047 2 3 tcp 1000 ------- 1 0.0 4.0 27 63
r 13.100049 0 2 tcp 1000 ------- 1 0.0 4.0 28 64
+ 13.100049 2 3 tcp 1000 ------- 1 0.0 4.0 28 64
- 13.100049 2 3 tcp 1000 ------- 1 0.0 4.0 28 64
r 13.100051 0 2 tcp 1000 ------- 1 0.0 4.0 29 65
+ 13.100051 2 3 tcp 1000 ------- 1 0.0 4.0 29 65
- 13.100051 2 3 tcp 1000 ------- 1 0.0 4.0 29 65
r 13.100053 0 2 tcp 1000 ------- 1 0.0 4.0 30 66
+ 13.100053 2 3 tcp 1000 ------- 1 0.0 4.0 30 66
- 13.100053 2 3 tcp 1000 ------- 1 0.0 4.0 30 66
r 13.100055 0 2 tcp 1000 ------- 1 0.0 4.0 31 67
+ 13.100055 2 3 tcp 1000 ------- 1 0.0 4.0 31 67
- 13.100055 2 3 tcp 1000 ------- 1 0.0 4.0 31 67
r 13.150034 2 3 tcp 1000 ------- 1 0.0 4.0 20 56
+ 13.150034 3 4 tcp 1000 ------- 1 0.0 4.0 20 56
- 13.150034 3 4 tcp 1000 ------- 1 0.0 4.0 20 56
r 13.150036 2 3 tcp 1000 ------- 1 0.0 4.0 21 57
+ 13.150036 3 4 tcp 1000 ------- 1 0.0 4.0 21 57
- 13.150036 3 4 tcp 1000 ------- 1 0.0 4.0 21 57
r 13.150038 2 3 tcp 1000 ------- 1 0.0 4.0 22 58
+ 13.150038 3 4 tcp 1000 ------- 1 0.0 4.0 22 58
- 13.150038 3 4 tcp 1000 ------- 1 0.0 4.0 22 58
r 13.15004 2 3 tcp 1000 ------- 1 0.0 4.0 23 59
+ 13.15004 3 4 tcp 1000 ------- 1 0.0 4.0 23 59
- 13.15004 3 4 tcp 1000 ------- 1 0.0 4.0 23 59
r 13.150042 2 3 tcp 1000 ------- 1 0.0 4.0 24 60