+ 5.451157 6 10 tcp 1540 ------- 0 32.0 33.0 197 2293
- 5.451157 6 10 tcp 1540 ------- 0 32.0 33.0 197 2293
r 5.45128 2 6 tcp 1540 ------- 0 32.0 33.0 198 2294
+ 5.45128 6 10 tcp 1540 ------- 0 32.0 33.0 198 2294
- 5.45128 6 10 tcp 1540 ------- 0 32.0 33.0 198 2294
r 5.451289 20 19 rtProtoDV 34 ------- 0 20.1 19.1 -1 2308
r 5.451289 20 21 rtProtoDV 34 ------- 0 20.1 21.1 -1 2309
r 5.451289 20 24 rtProtoDV 34 ------- 0 20.1 24.1 -1 2310
r 5.451403 2 6 tcp 1540 ------- 0 32.0 33.0 199 2295
+ 5.451403 6 10 tcp 1540 ------- 0 32.0 33.0 199 2295
- 5.451403 6 10 tcp 1540 ------- 0 32.0 33.0 199 2295
r 5.451526 2 6 tcp 1540 ------- 0 32.0 33.0 200 2296
r 5.531403 23 33 tcp 1540 ------- 0 32.0 33.0 191 2287
+ 5.531403 33 23 ack 40 ------- 0 33.0 32.0 191 2313
- 5.531403 33 23 ack 40 ------- 0 33.0 32.0 191 2313
r 5.531526 23 33 tcp 1540 ------- 0 32.0 33.0 192 2288
+ 5.531526 33 23 ack 40 ------- 0 33.0 32.0 192 2314
- 5.531526 33 23 ack 40 ------- 0 33.0 32.0 192 2314
r 5.53165 23 33 tcp 1540 ------- 0 32.0 33.0 193 2289
+ 5.53165 33 23 ack 40 ------- 0 33.0 32.0 193 2315
- 5.53165 33 23 ack 40 ------- 0 33.0 32.0 193 2315
